formula,band_gap (MP)
Mg30CdSnO32,1.6414999999999988
CaCrO2,1.6415999999999995
PrCuSO,1.6415999999999995
NaHf3NbSi3(SO8)3,1.6417
Ba3Ti(FeO4)2,1.6418
MgP2WO7,1.6418
MgTi3SiS5O24,1.6418
Rb3Ag9(SbS3)4,1.6418000000000004
Fe8H10O17,1.642
CsPbI3,1.6421
Er3CuSnS7,1.6421
Li5Fe5(PO4)6,1.6421
Zn2Mo(WO4)2,1.6422
Cd3(AsO4)2,1.6424
Ca2Ga2Bi(B2O7)2,1.6425999999999998
Na4TiZn3SiS5O24,1.6426
HgI,1.6426000000000005
Ba(NdS2)2,1.6426000000000005
RbNaMg30O31,1.6428000000000005
Ca4CN4,1.6429
SrSb(PO4)2,1.6429999999999998
MgSc2Cr2O8,1.6430000000000002
ScFeO3,1.6430000000000002
KLiZn3O4,1.6430000000000002
Ce2Nd2O7,1.6430000000000002
LaMn3Cr4O12,1.6430999999999996
K3MoCl6,1.6431
Li3Mn(PO4)2,1.6431000000000002
Sm9Al5Se21,1.6431999999999998
K6Se2O9,1.6432
Li2VFeO5,1.6432000000000002
Li2TiNiO4,1.6432999999999995
FeBiO3,1.6433
K2Sn(AuS2)2,1.6433
V2Ge2O7,1.6433
Li6Mn2B4SO16,1.6433999999999995
MnH16C4S4(N4Cl)2,1.6433999999999995
Na2TbCuCl6,1.6434
BaMg30CoO32,1.6434999999999995
BaLaAgSe3,1.6435
CoF3,1.6435
LiBiB2O5,1.6436
Li2V(SiO3)2,1.6437
Li2MnV3O8,1.6437
TiFeO3,1.6437
P3Se4I,1.6437000000000002
BaNaCeBiO6,1.6438
Cs2Sb4S7,1.6439
Cs6Cr2O7,1.6439999999999997
LiAl(H2N)4,1.644
ScAg(PSe3)2,1.6441
Sb2IBr2F11,1.6441
Na2LaSn(PO4)3,1.6441
Pm2MgS4,1.6442
WO2F,1.6444
Fe4OF7,1.6445
Mg30VSnO32,1.6445000000000007
Li3VSiO5,1.6445999999999996
MgV2CdO6,1.6446
Ca2Gd2MnNiO8,1.6446
LaScS3,1.6446000000000005
Pr9Ga5S21,1.6447000000000005
Mg(GaS2)2,1.6447999999999996
Rb2U2O7,1.6448
Li3Fe(BO3)2,1.6448000000000005
Li5Cu(PO4)2,1.6448999999999998
Fe2TeO5,1.6448999999999998
Na2VO3,1.645
TiCrSbO6,1.6451000000000002
HgI3N,1.6452
VPO5,1.6452999999999998
Li6MnCoP2(CO7)2,1.6453000000000002
Rb4CO4,1.6454999999999995
BaBiBrO2,1.6455
GdSBr,1.6455
Rb2O,1.6455
LiP4WO12,1.6455000000000002
Na3MgBiO4,1.6456
NdTlS2,1.6456
Na18Nb8Zn4Si15(SO24)3,1.6456
Li3Fe9O5F11,1.6456000000000002
Li(CN)2,1.6458
V3Se2ClO8,1.6458000000000002
NbBi3O7,1.6458000000000004
Li4Co3WO8,1.6459999999999997
VFe2BO5,1.6459999999999997
MnV2(PbO4)2,1.646
Li2VFeP2(HO5)2,1.646
K12In2Se9,1.646
BaFe4Sn2O11,1.6460999999999997
Li9Fe5(SiO8)2,1.6460999999999997
Rb2Ti(TeO4)3,1.6461
BaH2,1.6461
Ca(FeO2)2,1.6461
Li3MnCoO5,1.6462
CaSnO2,1.6462000000000003
VPO5,1.6462999999999997
VAgO3,1.6463
VH6(OF)3,1.6463
As4S11(N6Cl7)2,1.6464
V(PO3)4,1.6464
CoSb(PO4)2,1.6465
ZnW2O5,1.6465999999999998
CaMn2O4,1.6466
Dy12Si5S28,1.6467
NdInO3,1.6467999999999998
SbH5(Cl3O)2,1.6468
Pr2CdS4,1.6469999999999998
Rb5Re3S7,1.6469999999999998
H32WC8N4Cl7,1.6470000000000002
Na5Mg3TiP3(SO8)3,1.6471
BaMg30SnO32,1.647100000000001
Ba2SrMgWO6,1.6472000000000002
LiV2OF5,1.6473999999999998
VOF2,1.6474
Na2HgO2,1.6474000000000002
Na3W3Cl13,1.6475
Na8ZnSi5Sn3SO24,1.6475
Y2W2O9,1.6475
BrN2O5F3,1.6475
Li2V3NiO8,1.6475999999999995
Li7Fe7SiO16,1.6477
Sr2NdVO6,1.6477000000000004
V(GeO3)2,1.6478000000000002
LiFeSiO4,1.6478000000000002
Sb2XeF16,1.6479
Tb2MoO6,1.648
Na8ZnSi5Ge3SO24,1.648
Nb2MoO8,1.6481
Zr2N2O,1.6481
TeWO6,1.6481
BaTbInWO6,1.6481
CuHgC4(SN)4,1.6481
Na9Ca4Nb2(PO4)9,1.6482
BaNa6O4,1.6482
Cs2Ba2O3,1.6482
BaYbAl2Si2N5O2,1.6482
Ce2Y2O7,1.6482
LiMo3P3O16,1.6483
Na3Ca2BiO6,1.6483
K2U2O7,1.6483
WO2F,1.6484
LiFeO2,1.6485
Na3BN2,1.6485000000000003
Sb2Pb2O7,1.6486
MgCo(GeO3)2,1.6486000000000005
SrCaDyBiO6,1.6487000000000005
V4O5F7,1.6487999999999998
LiVAsO5,1.6489000000000005
V2OF5,1.6491
TaCu3Se3S,1.6491000000000002
Ti3Fe3(BiO3)7,1.6491999999999996
KMnO4,1.6493
Mg30ZnCrO32,1.6493000000000002
Sm2Au5F21,1.6495999999999995
Li2V(OF)2,1.6495999999999995
Cs2O2,1.6496
CaFe3P3H2O13,1.6496999999999995
Nd2MgCr2O8,1.6496999999999995
Rb2MgO2,1.6497
INO3,1.6497000000000002
ThNb4O12,1.6498
LiFeP2O7,1.6498000000000002
Rb2LiRhCl6,1.6499
AsXe2F9,1.6500000000000004
Na4Mg(CoO3)2,1.6500000000000004
V2ZnP2O9,1.6501
La2Mn(SeO)2,1.6501
Ge19(PCl)4,1.6502000000000003
Zr2N2O,1.6504
Dy3Fe5O12,1.6504000000000003
Zr2N2O,1.6504000000000003
MgV2O4,1.6504000000000003
La2MgCo2Sb2(PbO6)2,1.6504000000000003
FeF4,1.6505
Na5CoO4,1.6505000000000003
Na4Sn3S8,1.6505999999999998
Cs2O,1.6506000000000003
CoSb(PO4)2,1.6506000000000003
Li4Co3OF8,1.6506999999999998
VSO5,1.6506999999999998
VF3,1.6507
AlS2NCl6,1.6507
SmBiS3,1.6507999999999994
Li5Fe3(CoO5)2,1.6507999999999998
NaNd(GaSe2)4,1.6508000000000005
LiY5(MoO6)2,1.6508999999999996
LiTiCrO4,1.6508999999999996
Ir(SeBr3)3,1.651
BaPd(SeO3)2,1.6510999999999998
Cd(CoO2)2,1.6511
Na12Mg4Nb2Si6(SO12)3,1.6511
Ti2FeO5,1.6511999999999998
YMgCu3Se4,1.6511999999999998
Ca2VN3,1.6511999999999998
La2Fe(SeO)2,1.6513
Y2MgMo2(ClO4)2,1.6513
KZn4(SbO4)3,1.6514000000000002
MgFe3(PO4)3,1.6515
NbO2F,1.6515
LiFeB2O5,1.6515000000000004
NaMn(HO)3,1.6517
Rb2TlGaBr6,1.6518
Co6C13(SO6)2,1.6518000000000002
KGe2N3,1.6518000000000006
Ti3Fe(BiO3)5,1.6518000000000006
AlFeO3,1.6518000000000006
PWO5,1.6519
MgV2P2(O4F)2,1.652
LiMnF5,1.652
LiVGaO4,1.6521
LiFeB2O5,1.6521
Nd2Au5F21,1.6521999999999997
CaV2O4,1.6522
InHO2,1.6522000000000006
Zr2N2O,1.6522999999999994
LiFe4(BO3)4,1.6524
BaCaLaBiO6,1.6524
Na18Ca4Nb20Si27(SO16)9,1.6525
SnHg7(P2Br3)2,1.6526999999999998
MgFe4(OF)4,1.6527999999999998
ZnH24Au2C12S8(NCl)4,1.6528
WO2,1.6528
Ba2P7Br,1.6528
KSnAuS3,1.6528
CaHgAu2,1.6528999999999998
Sr4Ti3Nb2O15,1.6529000000000005
La3SiAgSe7,1.6531000000000002
Mg6NbCuO8,1.6531000000000011
LiGdS2,1.6532000000000004
Ca(BiO2)2,1.6532999999999998
Fe2As2H2PbO10,1.6533
Mg2C3,1.6533000000000002
Mg2Si2O5,1.6533999999999995
NaIn2Sn2P3(SO8)3,1.6534000000000002
Na5SbO5,1.6535999999999995
Li7Mn2(CoO4)3,1.6536
K2VPCO7,1.6536
CeThO4,1.6536000000000008
TiSiO4,1.6536999999999995
Mn2AsHO5,1.654
Tb12Si5S28,1.654
Li2Cr2FeSbO8,1.6540999999999997
Na2DyCuCl6,1.6541
Mg6CuSnO8,1.6543
Li7V3(SiO6)2,1.6544
Li2V3WO8,1.6544999999999996
LiAgF2,1.6547999999999998
NaNbO3,1.6547999999999998
Li3VSiO5,1.6548999999999996
Cd2Si5N8,1.6550000000000002
Sr3P14,1.6551
Zr2N2O,1.6551
Cs2GeSe3,1.6551999999999998
Zn3Fe3(AsO4)4,1.6552
Na2Zr4Nb4Si7S5O48,1.6554000000000002
H16PdC4S4(N5O3)2,1.6554000000000002
LiFeCO4,1.6555000000000002
Pr2TeO2,1.6555999999999995
Ag4P2S7,1.6556000000000002
Sm3CuSiS7,1.6556999999999995
H48PtC32S4(N3O4)2,1.6557
CsSnS3,1.6557000000000002
Tm2Se3,1.6557999999999995
VH4C4O6F,1.6558000000000002
Li4MnFe2(BO3)4,1.6559
Sr6Nb2O11,1.6559000000000004
Te3Mo2S,1.656
Na9Ca5Nb7(PO4)18,1.6562
V2Bi24O41,1.6562
K5TlO4,1.6562
V4O7F5,1.6564
MgV2Bi4O11,1.6564
Pr2MnNiO6,1.6564
BaMg(FeO2)4,1.6564
BaSrPrVO6,1.6564
LiHo2Cu(SiO3)4,1.6564000000000003
Li4Fe3(BO3)4,1.6565
Na3SrTiNb3O12,1.6565
RbHfMg14O15,1.6565000000000003
Cs3VS4,1.6566
Mn2Fe(CO)14,1.6566999999999998
LiNbFeO4,1.6567
Li7Fe4(PO4)6,1.6567
CsS3,1.6567
CuH12C5S4N,1.6568999999999998
LiFeSiO4,1.6568999999999998
MgCr2Fe3Ni(PO4)6,1.6568999999999998
CrFe2(PO4)3,1.6569
VAg(SO4)2,1.6570999999999998
Na2Ti2Si3Sn2(SO8)3,1.6570999999999998
K2Mg(PSe3)2,1.6572
Li5Fe8(BO3)8,1.6572000000000002
LiCr2O3,1.6572000000000005
Na14Ca2Si9Ge6(SO16)3,1.6572999999999998
Sb2H3C3SCl6O5F3,1.6573
SrAlCu3Se4,1.6573000000000002
CrNiAg2F7,1.6573999999999998
Al3Co(PO4)4,1.6574
V3ZnO8,1.6574
NbCu3S4,1.6574
Co(PO2)2,1.6574
Ba2NdGaSe5,1.6574000000000002
BaGdFe4O7,1.6574999999999998
Ba2NdMgBiO6,1.6575000000000002
TiSn(PO4)2,1.6575000000000002
MgFe6O7F5,1.6576
NaMg14CrO16,1.6576
Na7Ti2Zn2SiP5O24,1.6576
TmCuS2,1.6576000000000004
La4Se3N2,1.6576999999999993
Ca(BiO2)2,1.6578999999999997
MnHgC4(SN)4,1.658
Li4VTe(WO6)2,1.658
Te2Mo2SeS,1.6580000000000004
GeC,1.6580999999999992
Na7Mg3Nb(PO4)6,1.6582
BaH(NO2)2,1.6583
LiLa4AuO8,1.6583000000000006
Sr2PrVO6,1.6584
Ti2Cr3Sb3O16,1.6584999999999996
K3Li2Nb5O15,1.6586
Pr2PbSe4,1.6586999999999996
Li5Fe3(BO3)4,1.6586999999999998
Zr2N2O,1.6587
Nb2Tl5S4Br9,1.6588000000000005
Na2YAgF6,1.6589999999999998
As2H5CO6,1.659
MgCrF6,1.6591
Fe3H4(S2O9)2,1.6592000000000002
Mg6MnCrO8,1.6592000000000002
NaInSiSn(SO6)2,1.6593
Li9Mn2Co5O16,1.6593
Na3LaGe3(PO4)6,1.6593000000000002
SrHg2(ClO)2,1.6593999999999998
Er10Ti6O27,1.6594000000000002
Tb2Au5F21,1.6596
Si(GeN2)2,1.6596000000000002
Na6Ti4Si7Sn4S5O48,1.6596000000000002
Fe2(CO3)3,1.6598
Ca(SnO2)2,1.6598999999999997
Be3Si3C4SO12,1.6598999999999997
V2CrO6,1.6599000000000002
BaMgMnF7,1.66
CsK2RuF6,1.66
Pr2MgCr2O8,1.66
Li5TlO4,1.66
Gd3NbO7,1.6602
Cs2Se,1.6603
Pr3CuGeS7,1.6603000000000003
ZnSb3XeF23,1.6604
KMg14WO16,1.6605
Ba2PrVO6,1.6605000000000003
MoS2,1.6606
Pr2MgSe4,1.6606
NaNbO3,1.6606999999999998
LiVPO4F,1.6608
Li2VSiO4,1.6609999999999996
U11(PbO12)3,1.6609999999999996
Na14Mg4Si7Sn4S5O48,1.661
CoSeO4,1.6610999999999998
LiAlSiH2O5,1.6610999999999998
Li2Cr5(Si2O5)6,1.6612
Li4Ti3Co2Sn3O16,1.6612000000000005
LiFe2(PO4)2,1.6613
SrLi2Nb2O7,1.6613
TaAgO3,1.6614999999999998
Ba2YGaSe5,1.6616
Na8CaSi5Sn3SO24,1.6616999999999995
MgFe2(SO5)2,1.6617000000000002
Ca(AuO2)2,1.6618000000000004
LiMnAlO3,1.6618999999999997
Fe2OF3,1.6619
BC2N,1.661900000000001
GaAgGeS4,1.662
Cs4CO4,1.6621
SnCNCl3,1.6622
BaNdAgS3,1.6623
Cs2AgSbCl6,1.6624
Cr8Bi4O29,1.6625
Mg2Nb4Si3(SO6)6,1.6625
KSmGeSe4,1.6626
TaTi9Al3Zn23O48,1.6626000000000003
Tl4Hg3Sb2(As2S5)4,1.6628000000000005
Tb9Al5Se21,1.6628000000000005
CeHfO4,1.6628999999999996
Dy2MgV2O8,1.6629
K2UH4C4SNO10,1.6629
Tm2MgV2O8,1.6629000000000005
Li3RhF6,1.6630999999999998
Ba2GdBiO6,1.6632000000000002
SrLiLa3MnO8,1.6632999999999996
InTeCl,1.6633
Y3Fe5O12,1.6633
LiFe2O2F3,1.6633999999999998
CrAgO2,1.6634000000000009
LiVFe(P2O7)2,1.6635
Ho9Al5Se21,1.6635
Ta2WO8,1.6635
FeMoHSeO7,1.6635999999999995
Sb3Cl11F4,1.6636
CaTi3SiS5O24,1.6636
V2Zn(PO5)2,1.6636000000000002
Li3Fe4(BO3)4,1.6637
Zr2N2O,1.6637
Na18Mg8Ta16Si21(S5O48)3,1.6638000000000002
Ca2Mo3O8,1.6638000000000002
SrLa4TiCr4O15,1.6639999999999997
Cs2Sb8S13,1.664
C2S3I,1.6642
CoB10H23C13,1.6643
TlIn5S8,1.6643
NaNbO3,1.6644
SiC,1.6644000000000003
PPbSe3,1.6645
Fe4P3(HO5)3,1.6645
Li3BiS4,1.6645
Rb2CrAuF6,1.6646
KTa(CuSe2)2,1.6646
MgCuAu2,1.6646999999999998
NbIn3SiS5O24,1.6647999999999998
MgVAsO5,1.6650000000000005
Pr2ZnPtO6,1.6650999999999998
S3N,1.6651
Li3MnCoO5,1.6652
Sr2FeSbO6,1.6652000000000005
Nd9Ga5S21,1.6652999999999998
Ba2Fe6O11,1.6653
SbS2NCl6,1.6653
Cs11Tl6Cl29,1.6653
LiFe2(BO3)2,1.6654000000000002
Rb2SnSe3,1.6655
Rb2NbCuSe4,1.6655000000000002
Li2CuPO4,1.6655999999999995
Hg2WO4,1.6656000000000002
K3BP2,1.6658
NaTaTi3Si3(SO8)3,1.6658000000000002
Rb6Cl4O,1.6658000000000002
B2Pb2S5,1.6658999999999995
MgAsH7O4,1.6659
Li2CrFeO4,1.6659000000000002
Cs2KMoCl6,1.666
MgAg4Te8(MoO12)2,1.666
Zr2N2O,1.6661
Mg2Ta2VO8,1.6662
BaFe4O7,1.6662
AgTeO3,1.6662000000000003
Na10Mg2Ti6Si7S5O48,1.6664
CsSmGeSe4,1.6665
NbAl3SiS5O24,1.6665
FeNi2BO5,1.6665
Ba2Mn2F11,1.6667
Na2AgSbF6,1.6667999999999998
FePO4,1.6668000000000005
BaSrBiSbO6,1.6669
Li2Ti3MnO8,1.6670000000000005
Se3(NO6)2,1.6671
Fe2H4NF6,1.6671
Ba2DyGaSe5,1.6672
Rb2U2O7,1.6672
RbLa2Ti2NbO10,1.6672000000000002
Nd2MgS4,1.6672000000000002
BaZnCoF7,1.6673
Zr2N2O,1.6673
ReSbO6,1.6674
HoCoC6(N3O2)2,1.6674
P3N4Cl5,1.6674000000000002
Li2FeO2F,1.6678
Fe3P2H3O11,1.6678
K2InAgF6,1.6678000000000002
Ca2YFe4SbO12,1.6679999999999997
LiVPO5,1.668
Sm2NiPtO6,1.6680999999999997
K4MgMo2(SO3)2,1.6681
Fe5P4(H3O10)2,1.6681
Na2Hf4Si5Ge4S7O48,1.6682
V2(OF)3,1.6682
Ba2Tm2Zn8O13,1.6683
CaVFe(P2O7)2,1.6683
K6Sn2Se7,1.6684
Li3Fe8(BO3)8,1.6684
BaZnTe2O7,1.6684
LaCuSO,1.668499999999999
Sb9S4F39,1.6685
KGeBiS4,1.6686
Zn(FeO2)2,1.6686
Na4Ca3TiSiS5O24,1.6687
Mg2TiWO6,1.6687000000000003
MgV3O8,1.6688
LiFe2(BO3)2,1.6688
Si2SN2,1.6688000000000005
Ho3Fe5O12,1.6689999999999996
K6MnTe4,1.6690999999999998
Sc2PbS4,1.6691000000000005
LiCr3O8,1.6692
UH4(BrO2)2,1.6692
RbMg6BO7,1.6692
Na5Y2SiGe2P5O24,1.6694
K2GeSe4,1.6694
Li2VO2,1.6694000000000004
LiSbO2,1.6694999999999998
Zr2N2O,1.6695000000000002
Na4Ca3TiP2(SO6)4,1.6695000000000002
BaSrNdVO6,1.6697000000000002
CrBi8O15,1.6697000000000002
Fe3P2(HO)8,1.6698
Zr2N2O,1.6698000000000004
GePbN2,1.6699000000000002
Mn3SnO8,1.6699000000000002
FeHO2,1.67
Dy2MgV2O8,1.67
Rb4P2PbSe8,1.6700000000000002
Li2TiFe2O5,1.6700000000000004
ZnGaPS,1.6700000000000004
LuWO4,1.6702
KSnAsS5,1.6703
NaMgNiIO6,1.6703
VZnP2O7,1.6704
Tb10YbSe16,1.6704
Na9Mg5Nb7(PO4)18,1.6706
LiFe5O3F5,1.6707
Os2C6SeO6,1.6708
MgCr6O16,1.6709
TaZn2CoO6,1.6709999999999998
Rb2TlBiBr6,1.6711
CaBiMoO5,1.6711
Na2YCuBr6,1.6711999999999998
Na30Nb4Zn20Si9(S3O16)9,1.6711999999999998
Y(FeO2)2,1.6711999999999998
LiFe2(BO3)2,1.6712
Rb4Ca(Se2O7)2,1.6712
YMg30BO32,1.6712999999999996
Tb3Fe5O12,1.6714000000000002
Na9Nb7Zn5(PO4)18,1.6714999999999998
NaNbS6,1.6715
CuH36S8N11O18,1.6715
BN,1.6715
KMgNi2H3(SeO5)2,1.6715000000000002
BaGdInWO6,1.6715000000000004
LiNb(TeO4)3,1.6715999999999998
CoH2SeO5,1.6716
Li4Mn3O8,1.6716
CaFe6(OF2)4,1.6716000000000002
Te2MoWSeS,1.6716000000000002
K2Mn3V2(HO5)2,1.6717
Li3MnCoO5,1.6718000000000002
GaFe(BiO3)2,1.6718000000000002
MgNiO2,1.6718000000000002
BaSrPrVO6,1.6718000000000002
MgTi(WO4)2,1.6719
Na10Sc4Si7Ge4S5O48,1.6720000000000002
LiFeO2,1.6720000000000002
KGeN,1.6721
H10C3S3N,1.6721
MgFe4O5F3,1.6722
CaFe6(OF2)4,1.6723
SrCaGdBiO6,1.6724
Tl5Ag3(PS3)4,1.6724
Li3MnCoO5,1.6726
Ca3AsBr3,1.6726
Li2CrFeO4,1.6727
Cr(SiO3)2,1.6727999999999998
LiFe2(BO3)2,1.6727999999999998
BaFe2P2O7F2,1.6729
ZrP2S7,1.673
Mg2SbWO6,1.673
MgSc2V2O8,1.673
Li2CrFeO4,1.6730000000000005
Ba2ErGaSe5,1.6730999999999998
MgCu2SiS4,1.6730999999999998
Li4V3O8,1.6730999999999998
CaYCu3Se4,1.6731000000000005
MnGeO3,1.6731999999999996
TaTi9Al3Zn23O48,1.6732
TiNbCrO6,1.6732
Mg(ScS2)2,1.6732000000000005
Sr2FeSbO6,1.6733000000000002
FeHO2,1.6733000000000002
Li7Mn2(CoO4)3,1.6734
LiMn(CO3)2,1.6734
NaTiZnP(SO6)2,1.6735
K2Ti(CuS2)2,1.6735000000000002
BaCaSmBiO6,1.6736
AgAs(SeF2)3,1.6736
TmSeO3,1.6738000000000004
LiVTe(WO6)2,1.6739
NaFe5O8,1.6739000000000002
Y2GaN3,1.6739000000000002
VClO,1.674
Se2S(NCl)2,1.674
Cs2CeCuCl6,1.6740999999999997
Na3CoO3,1.6741
Na3GaBr6,1.6742
La2SnS3O2,1.6742
CsRbMg6O7,1.6742
SrTa2Bi2O9,1.6742
Co3(AsO4)2,1.6742000000000004
Cs2Pt,1.6743
K3MgSbS4,1.6743
Fe2H14C8NO12,1.6743
TiFe2O5,1.6744
Li5SbS4,1.6744
TaZn2FeO6,1.6746
Rb3IO,1.6746
MgUO4,1.6746000000000003
Li2PdF6,1.6748999999999998
Na3IrN2,1.6749
NaLiLa2Ti4O12,1.6749
B8PH24RhC7,1.6749999999999998
MoH8N2O5F2,1.6749999999999998
Zr2N2O,1.6751999999999998
Sr6Mg(Te4O11)2,1.6752000000000002
Na4Mg(WO4)2,1.6753
La2MgS4,1.6753
Sr2CrO4,1.6753
Y2MgCr2O8,1.6753
Zr2Ta2Si3(SO8)3,1.6753
Sr(LaSe2)2,1.6753
H16RhN5(Cl2O)3,1.6753999999999998
HgS4(NCl)3,1.6755
Ca(SbO2)2,1.675599999999999
AlCuS2,1.6756000000000002
Li2VCO5,1.6756000000000002
Tl3AsS3,1.565
Tl3Cr2(PS4)3,1.5650000000000002
BaNaTiNbO6,1.5650999999999995
LiVO2,1.5650999999999995
Na6Zn6SiSn2S11O48,1.5652
CuMo3I7,1.5653
K2AlTlI6,1.5653
MgFeAs2O7,1.5653000000000006
Ba4LiMo2N7,1.5654
NaNb6O15F,1.5654999999999997
Ba2In2O5,1.5654999999999997
Rb5FeO4,1.5655
LiCoGeO4,1.5655
K2RuBr5NO,1.5656
Li4Fe5Ni(PO4)6,1.5656000000000003
LiTiFeO4,1.5656000000000003
Fe8H10O17,1.5657
Re3S4Cl,1.5658
Li6V3P8O29,1.5658
Li2ZnCr3(SO4)6,1.5658
Ba2MgMo4(Se2O11)2,1.5659
TlAgI2,1.5659
Li3Fe8(BO3)8,1.566
SrCaMnWO6,1.5660000000000007
CdSeO4,1.5661999999999998
K3Ta2S11,1.5662000000000005
H8PtO6,1.5662000000000005
Ba2P7Cl,1.5662999999999996
HgHNO4,1.5664
Li5Fe4(P2O7)4,1.5665999999999998
GaSe2NCl6,1.5667
Si4MoO10,1.5668999999999995
V4OF11,1.5669
As2Pb2S5,1.5671
BN,1.5671
Bi2(CN2)3,1.5671000000000002
Ba4(PtO3)3,1.5671000000000004
K2Sn3O7,1.5671000000000004
Nd2MgSe4,1.5672
TlAs5S8,1.5672
BaNaCeBiO6,1.5674
HoFeO3,1.5675
KAgCO3,1.5675
K2In2P3Se10,1.5675
Na3CuO2,1.5675
Mg14MnCdO16,1.5675999999999997
Na10Co4O9,1.5678
YNbSi(SO6)2,1.5678
Ca(TmS2)2,1.5678999999999994
Y4Cu2O7,1.5678999999999998
K4Ta2S11,1.5679
CeHfO4,1.5679999999999996
Li2VO2F,1.5680000000000005
Na6Nb3Ga5Si6(SO8)6,1.5681
Hg2Te2O7,1.5682000000000005
Na3LaSi2GeSO12,1.5683
K2Zn(SnSe3)2,1.5684000000000002
Yb2PbS4,1.5684000000000005
Na6NiO4,1.5687
KAgCO3,1.5687000000000002
MgAlSbO4,1.5688000000000004
K2Y4Sn2S11,1.5688999999999995
LiVO3,1.5689000000000002
Ba3Y2MoO9,1.569
AlVO3,1.569
Ba2Zn(HO)6,1.569
Na4CaSi2GeSO12,1.5690999999999995
K2PAuS4,1.5691000000000002
Ca(ErS2)2,1.5692000000000004
MgV2Ag2(HgO4)2,1.5692999999999997
NaMgTa3Si3(SO8)3,1.5693
Pm2MgSe4,1.5693
BiAuCl6,1.5693
CsSmCdTe3,1.5693
Ti3TePb4O13,1.5694
NaIn2Ge2P3(SO8)3,1.5694999999999997
Ba3NaSr(SbO4)3,1.5696999999999997
Y2GaN3,1.5698
LiMnF5,1.5698
Tl5Sb10As3S22,1.5698999999999996
Na4V2C4SO16,1.5699
Ce3SnO8,1.5699000000000003
Ru4C12N2O13,1.57
Zn(FeO2)2,1.5701
Mg2NiPt,1.5702
VIn3S4,1.5702000000000005
MgFe2(HO2)2,1.5702999999999996
Cs3As7,1.5702999999999998
Se,1.5703
Hg2NO4,1.5703
Y2MgSe4,1.5703999999999998
CsPr2Ti2NbO10,1.5705
SICl7,1.5705
Ba4Ga5AgSe12,1.5706
V2ZnO6,1.5706999999999998
TlCrO4,1.5707
Y2MgCr2O8,1.5707
C3Br2O,1.5707
UH10C4S(NO3)3,1.5708000000000002
LiMn2OF3,1.5709000000000002
SrTcN3,1.5709000000000002
Li5CuF6,1.5709999999999995
MgSc4(FeO3)4,1.5710999999999995
K2TlAsBr6,1.5711
V3H4NO7,1.5712
Yb2S3,1.5713999999999997
LiNbO2,1.5713999999999997
Ga2HgS4,1.5714
KTaPS6,1.5714
Ba6LiNb2Ir(ClO6)2,1.5715
MnPb2WO6,1.5715000000000003
SbN2Cl5,1.5716
Te2AsCNF6,1.5716
SrMg30CoO32,1.5716
FeB6(CO)4,1.5716
Mg2ReN3,1.5716
Li2V5B3O13,1.5717000000000003
Ba6LiNb2Ir(ClO6)2,1.5718
Mg2NiH4,1.5719
Bi6Cl7,1.5719
LiV4(PO4)3,1.5719999999999996
Eu(BH4)2,1.572
C121(SCl10)2,1.572
KCrF3,1.5720000000000005
Mo2H2O7,1.5720999999999998
LiAuC2,1.5721
TlAs5PbS9,1.5722
Pr4Mg(Te4O11)2,1.5723000000000005
K3As(PSe3)3,1.5724
AlAg(WO4)2,1.5724
LiVF5,1.5724999999999998
LuVO3,1.5724999999999998
Li4V3Cr3(WO8)2,1.5726
Fe(NF2)3,1.5727999999999998
Mg6VFeO8,1.5728
Te(HO)6,1.5729
K3MnH5,1.5729
Dy2MgS4,1.5729000000000002
LiHoSe2,1.5729000000000002
TlIn(PS3)2,1.5729000000000002
KMnO2,1.573
ZnH18Ru2Br7N6,1.5730999999999995
Li2VO2F,1.5731000000000002
CaMn2O4,1.5732
Li6Cr3P6WO24,1.5734
LiMn2F7,1.5734
V4OF11,1.5735
CeHfO4,1.5736
Hf2Ta2Si3(SO8)3,1.5736
MgCr2(ClO)4,1.5736
Ga11NO15,1.5736999999999997
Ca5Nb4(CoO9)2,1.5737
Hg(AuF4)2,1.5738
SbH12C4NF4,1.5738
Rb2SbAuS4,1.5738000000000003
Ca4GeN4,1.5739
BaV2(P2O7)2,1.5741
K2RbTbMgV2O8,1.5741
Si2H2O3,1.5741
Rb2CeCuBr6,1.5744
Li11Fe12(BO3)12,1.5745
CoF3,1.5746
FeMoClO4,1.5746
S2NO9,1.5747
Ba2CdSe3,1.5747999999999998
Sr2VP2O9,1.5748000000000002
KSrSb,1.575
ZnCoF5,1.575
Lu2MgSe4,1.5750000000000002
LiMoP2O7,1.5751
CdSO4,1.5751000000000002
Rb2Hg2PdBr8,1.5753
Tb2MgSe4,1.5753000000000004
NbCrO4,1.5753999999999997
Sr7Mn4O15,1.5754
Li9Co3P8O29,1.5756
As4(Pb3S5)3,1.5756
CaSi2WO6,1.5759
Ho2MgV2O8,1.5759000000000003
K4Au6S5,1.576
Mg(FeO2)2,1.5760999999999994
Ba6Mg(P2O7)3,1.5761000000000005
CsNd2Ti2NbO10,1.5761999999999996
Ga2PdBr8,1.5761999999999998
Tb5Mg(MoO6)2,1.5762
K3YMgV2O8,1.5764000000000002
K2AgBiBr6,1.5765
Li2V(PO4)2,1.5765999999999998
U7(Te12O35)2,1.5766
BN,1.5766
KRb5Zn4Sn5S17,1.5766999999999998
LiMnF4,1.5767
H2Os3(CO)10,1.5767
InSnBr3,1.5767000000000002
Pr5AgS8,1.5768000000000004
Mg6MnBiO8,1.5768000000000004
Na8MgSi5Sn3SO24,1.5768999999999995
K5Zn4Sn5H4S17N,1.5769
Sr2MgZn2Sn2(PO4)4,1.5769999999999995
LiVF5,1.577
AsSe6IF6,1.577
Ti3Fe2(BiO3)6,1.577
Li5SbS,1.5770000000000002
La3U(ClO2)3,1.5771999999999995
Zr2N2O,1.5772999999999997
La5C2Cl9,1.5773
Cs7NaSi8,1.5773
Li2VNiO4,1.5773999999999997
Ti3V2O9,1.5774
K2MgFe4P6(O4F3)4,1.5774000000000004
Na6Sc4Si5Sn4S7O48,1.5775
Na14Ca4Si7Sn4S5O48,1.5775
AlBiN2,1.5775999999999994
Li3TaO4,1.5777
TiNbGaO6,1.5777000000000003
Rb2InGaCl6,1.5778
LiFe4(BO3)4,1.5778
Na14Ca4Ti4Si7S5O48,1.5779
P2Pd3S8,1.5779
Na6Si7Ge8S5O48,1.5779999999999998
MgV28O70,1.578
Ba(VN2)2,1.5780000000000003
Tm2MgSe4,1.5780999999999996
Li2V3CoO8,1.5781
RbS,1.5781
LiVFe(P2O7)2,1.5781
Li3Fe4(BO3)4,1.5781000000000005
NbBi7O13,1.5781999999999998
Na10Y4Ti4Si7S5O48,1.5782
TiSnO4,1.5783000000000005
Ca(FeO2)2,1.5783999999999998
LiHoSe2,1.5785
MgV2O4,1.5785999999999998
Li5Mn2CoO8,1.5785999999999998
Na2GaAgF6,1.5786
Li5BiS4,1.5786000000000002
Pr3SiN3O2,1.5786999999999995
Na3Mg5Nb(SO4)9,1.5787
ZnP2,1.5787
Tb3CuGeS7,1.5788000000000002
YSeF,1.5788000000000002
Cs2LiInBr6,1.5789
La2MnZnO6,1.5789
Na10Zn3Ge5(PO4)12,1.5790000000000002
Rb2U2Cr3(H6O11)2,1.5791
H2Ru6(CO)17,1.5791
Li5Fe2P2(CO7)2,1.5793
Cd(GaO2)2,1.5793
K2LiTlCl6,1.5798
Li4Re6S11,1.5798
Fe4(PO4)3,1.5799
Pr2MgSe4,1.5799
WS2,1.5799000000000003
CaTi2MnO6,1.5799999999999996
MnH8SN2O4F3,1.5799999999999998
KVPCO7,1.58
LiU4P3O20,1.58
Li3MnF6,1.5801
MgTi(GeO3)2,1.5801999999999996
Ta22W4O67,1.5801999999999998
ZrN3O3F7,1.5802
FeSb3(PO4)6,1.5802
Sm2MgSe4,1.5802
Rb2PdC2,1.5802
PBr5,1.5804
RbMg30MnO32,1.5804
Ca(LuS2)2,1.5804