formula,band_gap (MP)
MgMn5O9F,0.9561999999999996
MgV4(OF2)4,0.9562
Li4V3P8O29,0.9562
SnH6CI3N,0.9563
MgMn3VCr2(PO4)6,0.9563
HfTeSe4,0.9563
Cd(InSe2)2,0.9564
AgBiO2,0.9564
TmRhO3,0.9564999999999992
Cs2AlInI6,0.9566
Li6V3P8O29,0.9566
Sr20Fe3Co7(MoO6)10,0.9566999999999996
Mg30CrCO32,0.9566999999999996
MgCr2Cd2O8,0.957
Li6V3P8O29,0.9571
C3IN,0.9571
CaTiCo(PO4)3,0.9571
K3Cr2(PS4)3,0.9572
MnH20C22(N5O3)2,0.9574
Fe3H4(OF4)2,0.9575
NaMnPCO7,0.9575
Li4Mn2OF7,0.9575
Li5Mn3O8,0.9575999999999998
Na2LaGe(PO4)3,0.9576000000000002
Os(OF)2,0.9577
Rb6Co2O7,0.9577
Ni3H6SO3,0.9577
Zn(PO5)2,0.9577
LiCo(PO3)4,0.9577
LaFe12O19,0.9577999999999998
Si2Sn5N6,0.9577999999999998
Ba(Ag3O2)2,0.9577999999999998
Nd3InS6,0.9578000000000008
Li4Mn3CrO8,0.9579
Sc2CdS4,0.9581
SiO2,0.9581
MgAu4Se4(ClO3)4,0.9581
Ba2Mg(WO4)2,0.9581000000000004
Rb6Fe2O5,0.9581999999999996
CaU2Si2(HO3)4,0.9582
Sm2V2O7,0.9583
RbNdSe2O11,0.9583
Nd4PdO7,0.9583999999999996
Mn5(SiO5)2,0.9584
BaCdAsF,0.9586
Li7Mn2(CoO4)3,0.9587
Li32Ti3Cr13O48,0.9587
Sr8MgMn6O20,0.9587000000000004
K2FeOF5,0.9589
CsHo(NbBr3)6,0.9589
NbCuO3,0.959
Sr6Bi2O11,0.959
CeTl5Fe2(NO2)12,0.9590999999999998
LiVCrP2(O4F)2,0.9590999999999998
CdGeN2,0.9590999999999998
Li3V3P8O29,0.9591
Zn2IrWO6,0.9592
Yb4As2O,0.9593000000000004
Na4MgV4O10,0.9594
AuO2F,0.9596
Li3Mn2CoO6,0.9596999999999998
CaMg14CO16,0.9596999999999998
LiCo3(P3O10)2,0.9597
Li2Cu(Si2O5)2,0.9597000000000002
Li2V3O6,0.9597999999999997
Li5V3P8O29,0.9598
Li3Mn2O5,0.9598
Li5NiO3F,0.9598
Rb2CuBiF6,0.9599000000000002
Ca3GaN3,0.96
TiMnO3,0.96
LuAgS2,0.96
W(BrO)2,0.96
MgV2(SbO4)2,0.9601000000000006
Na2Ca5Ge3(SO4)12,0.9602
CaAsHO5,0.9602
Li2Cr3SnO8,0.9602999999999996
Na4Mg(Mo2O5)2,0.9602999999999996
CeSe2,0.9603000000000002
MgMnCo5O12,0.9603000000000002
Mg30CrCoO32,0.9603000000000002
MgV4P2O13,0.9603999999999996
K2Te2As,0.9604
MgMo4O9,0.9604
HoRhO3,0.9605999999999996
Gd3InS6,0.9606999999999992
CsTb(NbBr3)6,0.9607
CoNiO3,0.9607
Gd2CdSe4,0.9607
Cd15As9Cl2O37,0.9608
InGeN2,0.9608999999999996
Li2Mn2(PO4)3,0.9609
CeSe2,0.9609
Fe3C9SeSO9,0.9609
Ga2Te5,0.9609
CaU2V2O17,0.961
NaP2W7O25,0.9610999999999998
K5SnAs3,0.9611
Li2TiFeO4,0.9611000000000004
MgNb4VO12,0.9611999999999998
Li2Fe(CoO3)2,0.9612
Li3MnCoO5,0.9613
Ti2N2O,0.9614000000000004
La2ZnCrO6,0.9615
In2Ag2GeS6,0.9615
MgScCrS4,0.9616000000000002
K2Dy4Cu4S9,0.9616000000000002
Ce4Y6O17,0.9616000000000002
Li4MnCo2O7,0.9617
Na2MnBSO7,0.9618
Cs2Se5,0.9618
V3(O2F)2,0.9618000000000002
Mg(WO3)4,0.9618000000000002
MgSc4(FeO3)4,0.9619999999999996
Na3GaN2,0.962
Ba(BiS2)2,0.9620000000000002
Li2TiV3O8,0.9621999999999996
GaAgS2,0.9622000000000002
BaP2(HO)2,0.9625999999999996
Li9Mn2Co5O16,0.9626
Yb(Ga3Te5)2,0.9627000000000004
Li5V2Ni5O12,0.9627000000000004
ZrSnPt,0.9627999999999995
Na3NO3,0.9628
LiMn(PO3)4,0.9628
Li7Mn2(CoO4)3,0.9628
MgVFe(P2O7)2,0.9629
Li9Mn2Co5O16,0.9629
Na6Mg4Nb8Si9(SO8)9,0.9629
AgClO2,0.963
MoH4O5,0.963
Bi2Se2O,0.963
Ir(C2N3)3,0.963
Li3CuF4,0.9630999999999998
BaSr3(CoO3)4,0.9630999999999998
Na6Mg(CoO3)2,0.9630999999999998
Li6Mn3CoO10,0.9630999999999998
K3P2AuSe8,0.9631999999999998
Cs2GaAuF6,0.9632
MnZnPO5,0.9632999999999998
CeSe2,0.9632999999999998
K2BiAuCl6,0.9632999999999998
BaMg2N2,0.9633000000000004
MgFe4(OF)4,0.9634
RbTlBr3,0.9634
K2Al2Sb3,0.9634
Li4MnCo2O7,0.9634999999999998
N2,0.9634999999999998
Gd3InS6,0.9636000000000003
Li3V3P8O29,0.9637
Ba4CaV4Cu2F28,0.9638
CeSe2,0.9638
Ca(CoS2)2,0.9638999999999998
K2FeH4(SO5)2,0.964
CuH9C4NO6,0.9641
Tb2MnCrO6,0.9641999999999996
ErRhO3,0.9642
Ba(InTe2)2,0.9642
CeSe2,0.9642
MgCo6(OF5)2,0.9643000000000002
Li3CuO3,0.9644
Nb3InN6,0.9644000000000004
La2Pt2O7,0.9644000000000004
ClO2,0.9646
Cs2TmCl5O,0.9646
Li5V3P8O29,0.9646
BaFe2P4H4O17,0.9647
MnH6(S2O9)2,0.9648
Cs2Mn(PSe3)2,0.965
MoW(SeS)2,0.965
H5IO6,0.965
Li4V3P8O29,0.9650999999999998
Rb5FeO4,0.9651999999999998
Al2Si2H8N2O9,0.9652
MgFe4(CoO4)2,0.9652999999999996
ZnCr2O4,0.9653
BaYCuSe3,0.9653
Ho6Mn(GeS7)2,0.9654999999999996
SeS4(NCl)3,0.9654999999999998
NaTc12Br25,0.9655
Ti4(Ni5O8)3,0.9655000000000004
K2In(PSe4)2,0.9655999999999998
PdSO4,0.9656
Li6Mn3CoO10,0.9657
Na2CoO3,0.9657999999999998
YBi3F15,0.9658
Li7Mn4P9O32,0.9658
Li2VO2F,0.9658999999999996
KAgO2,0.9659
NaMnPCO7,0.966
Li3MnCoO5,0.9660000000000002
CeSe2,0.9660999999999996
Ga3NO3,0.9661000000000002
SrLiSb,0.9661999999999996
ZnP4,0.9662999999999996
La6Sm2V3Cr5O24,0.9662999999999996
CeSe2,0.9663
TaTlPt,0.9663000000000004
MgTiVO4,0.9663000000000004
Li9Mn7O16,0.9664
Mo(NO2)2,0.9664
Rb(Nb2Cl5)3,0.9664999999999996
LiFeP2O7,0.9665
MnZnAs2O7,0.9665
In2AgS3Br,0.9666
Si5Ir3,0.9666999999999994
KMnO2,0.9667
ReCl3,0.9668
Li3MnSi2O7,0.9668
Li2MnCoO4,0.9668
La7SmV7CrO24,0.9669
MgZn2Cr2O8,0.9669
C,0.9669
Cs(Nb2Cl5)3,0.967
CrAgS2,0.9670000000000004
La3CuS3O2,0.9670000000000004
CsCuO2,0.9672
CeSe2,0.9672
MgNbV3O8,0.9672999999999998
CrAgS2,0.9672999999999998
K3Mo2Br9,0.9673
Li4Ti5Mn4O18,0.9673000000000004
Gd(CuS)3,0.9673000000000008
Li2PWO4F,0.9673999999999996
Li4Mn3NbO8,0.9673999999999996
Te2MoWSe2,0.9673999999999996
LiMnPO4F,0.9675
LiMnP2(HO4)2,0.9675
Li3V2P4(HO8)2,0.9675
Li2V5O10,0.9675000000000002
Li5Cr2Fe5O12,0.9676
Li6Mn3CoO10,0.9677000000000002
PPdSe,0.9677000000000002
Li2MnCr3O8,0.9677999999999998
Ag2Se,0.9678
Nb2Si3Sn2(SO8)3,0.9678
MgMnPO5,0.9678999999999998
Cd3SiO5,0.9679
Te4Mo2WSe2,0.9679000000000002
BaSiC,0.968
Te4MoW3Se4,0.968
Li2Mn(BO2)5,0.9682
Nb3Se5Br7,0.9682
Ga2SnGeS6,0.9682
Li7Mn5O12,0.9682
CsSnBr3,0.9682000000000002
Zn3Cr3(AsO4)4,0.9683000000000002
MgFe2(HO2)2,0.9684
Er2ThOF10,0.9685
HfCrAgS4,0.9685999999999996
Ba4LaGe3SbSe13,0.9686
Fe3C8(Br2N)8,0.9687
HgF2,0.9687
MgPb4(WO5)2,0.9687
K2Mn2Zn4Si4O15,0.9687
N2O,0.9687000000000006
Nb3TlCuCl9,0.9688
Mg14NbCrO16,0.9689999999999994
Li3Mn(PO4)2,0.9691
KSi7H62C25O6,0.9692
Nd2Ta3(SeO4)2,0.9692999999999996
MoW11O36,0.9693
VWO4,0.9695
CaCd(NO3)4,0.9696
K4MgMn4O8,0.9696000000000002
Rb5FeO4,0.9697
Fe3(OF2)2,0.9697
V17Pb3O32,0.9697000000000005
BaYMg6O8,0.9697999999999992
Li2TiFe2O5,0.9697999999999992
Li2Mn2Si3O10,0.9698
CaP3W3O13,0.9698000000000002
VPN2O5,0.9699
Mg(BiO2)2,0.9699999999999998
K2ReBr6,0.97
La3Mg2CrS8,0.9700000000000002
Tb12Ge5S28,0.9700000000000002
V3Bi2(PO4)6,0.9702
Te4MoW3Se4,0.9702000000000002
NbCoSn,0.9703999999999996
LiMnCSO7,0.9704
MgCu2SnHgS4,0.9704000000000002
Zr3N4,0.9704999999999996
CsVZn(PO3)6,0.9705
Li2MnSi4O11,0.9706
W2O5,0.9706
Li4V2F9,0.9706
KAuSe5,0.9706
Ca2MnFeSi4(HO3)5,0.9706
Cs3Tm11Te18,0.9707000000000005
Na10Mn2O9,0.9708
Y4Mn13Si2(SbO14)2,0.9708
Li3Fe4NiO8,0.9709
Li24TiCr11O36,0.9709000000000004
MoP4O13,0.971
ScMo3O8,0.9711
Rb2BiAuCl6,0.9711999999999998
FeH9C5NO6,0.9712
Ba(TbTe2)2,0.9712999999999998
MgMo2O5,0.9713000000000004
TaRhO4,0.9714
Li6V3P8O29,0.9714
CeSe2,0.9715
Li3V3P8O29,0.9715
CuH36C8(N5O4)2,0.9715
Na2Mn(PO3)5,0.9716
MgV4O10,0.9716999999999998
Rb3GaI6,0.9717
Cs4Tc6S13,0.9717000000000002
Li2V5O10,0.9717000000000002
Tl3In7Se10,0.9717000000000002
Li4MnO3,0.9717999999999998
ScTlO2,0.9718
BaNb2Fe2(PO4)6,0.9719
K4ZrH10C8O21,0.9719
Rb8Zr6BeBr20,0.9719
LiMn(CO3)2,0.9719
K2MnS2,0.9719999999999998
CeSe2,0.972
Ca4Cr5(TeO6)3,0.9722
K2LiS2(O2F)2,0.9722
Rb4Tc6S13,0.9722000000000004
K2CoBr4,0.9723
LiMn(SiO3)2,0.9723000000000002
CaW4O9,0.9723000000000006
PCF3,0.9724
Tl2Pt5S6,0.9724000000000004
CrSnSbO6,0.9726
CeSe2,0.9726
Pr2CdSe4,0.9727
Li3Co2(CO3)4,0.9728
Sm3InS6,0.9729
EuIBr,0.973
LaCoO3,0.973
Dy12Ge5S28,0.9731
Cs2MgMnV2(BrO3)2,0.9732
Na3BiO4,0.9732
LiCoSnO4,0.9732999999999996
La2MnCrO6,0.9733
Li6Mn(BO3)3,0.9734
Na2V2O5,0.9734
MgZn4O5,0.9734
Na17(WO3)19,0.9734000000000004
K2(NbCl3)3,0.9735
ScMo3O8,0.9735999999999998
K2BaNb2S11,0.9735999999999998
BaCu2GeS4,0.9735999999999998
Li5Fe3(OF5)2,0.9736
CsSe4,0.9736
CoPO4,0.9736
Ba2MgMn2O6,0.9737
CaNdCoO4,0.9737
Ti2N2O,0.9737
Li2Ti3V3O12,0.9737999999999998
Cs5In3As4,0.9739000000000004
MgV4(PO5)4,0.974
Ca4Al6WO16,0.974
K2LiMoI6,0.9740000000000002
Li2VO2F,0.9741
FeS3N2Cl5,0.9742
Ca21(Zn2As9)2,0.9742000000000002
MgMn2O4,0.9743
Li9Mn7O16,0.9744000000000002
FeSe2NCl6,0.9745
Nd2Mg(BiO4)2,0.9745999999999996
Te8Mo3W,0.9745999999999996
Na5Bi2As(CO4)4,0.9745999999999996
Na2Mg(FeO2)4,0.9746
BaCdO2,0.9747
Li4Mn(OF)2,0.9747000000000005
Lu3Tl2Cu5Se8,0.9747999999999992
LiMg14CO16,0.9747999999999996
RbHfMg6O7,0.9748
GaCu(WO4)2,0.9749
Cs3AlP2,0.9749000000000004
MgMnV2O6,0.9749999999999996
CsLu(NbBr3)6,0.975
Dy(BrO2)3,0.975
Li2CuF4,0.975
ZnNiO2,0.9751
Li5MnO4,0.9751
Co(PO3)3,0.9751
Rb2LiMoI6,0.9751999999999996
Sn(S4I)4,0.9752
Ba2MgMnO4,0.9752
Ca2PH,0.9753
Cs2RbGaI6,0.9753
NaTlO,0.9754999999999998
MgFe8(OF)8,0.9754999999999998
MgV4O7F5,0.9755
Y7ReO14,0.9755000000000004
CaSn2S5,0.9756
Sr2UCrO6,0.9756999999999998
TeS7Cl2,0.9757
FeTeS2N2Cl5,0.9757
MgMnBiO5,0.9758
Sr4MgIn2(SbO6)2,0.9758000000000004
Li3V3P8O29,0.9759
Na3Co(BO3)2,0.9759000000000002
Er14Ti10O41,0.976
Pr3Se3N,0.976
Li3Mn(PO4)2,0.976
MnAs2H16(S2N)4,0.9760000000000002
Na18Nb16Zn8Si21(S5O48)3,0.9760000000000002
HgC6(IN2)2,0.9761
Na6Mg(BiO4)2,0.9761000000000002
LaSbSe3,0.9761000000000006
Sb3AsS6,0.9761999999999996
AuClO,0.9762
Ti2N2O,0.9763000000000002
HgC4N6(ClO2)2,0.9763000000000002
Nd4Bi2S9,0.9763000000000002
Te4Mo3WSe4,0.9764
CeSe2,0.9765999999999996
MgHg8(NO4)4,0.9766
MgFe4(CuO4)2,0.9766000000000004
FeSnO3,0.9768
Li2V3O6,0.9769
CeSe2,0.977
Li9Mn2Co5O16,0.9770000000000004
ScInP2,0.9771999999999998
ZrCoBi,0.9771999999999998
Li5V3P8O29,0.9773
Li2TiV3O8,0.9773
K3Ca2Mg10Si16(HO12)4,0.9773999999999998
FeS3(NCl2)2,0.9774
Mg2ZnP2,0.9775
MgV6O5F19,0.9775
SrLa3Mn2Cr2O12,0.9775999999999998
V2P2NO11,0.9777
Li7Mn5O12,0.9777
VBiO3,0.9777000000000003
CsPr(NbBr3)6,0.9777999999999998
HfIN,0.9778000000000002
Te2W3Se4,0.9778000000000002
Co3OF5,0.9779
CsY(NbBr3)6,0.9779000000000002
K2CuAsF6,0.9780000000000002
CsTlO2,0.9780999999999996
MoP2O7,0.9781
CrHO2,0.9781000000000004
CeSe2,0.9781000000000004
Ba2Sb2O7,0.9781999999999996
Li32Mn3Cr13O48,0.9782000000000002
YMg30CoO32,0.9784000000000006
Sr7PrFe4(MoO6)4,0.9785
ZrPdF6,0.9785
Ca2Mg(AsO5)2,0.9785
Na2P2O13,0.9785
CsSnCl3,0.9787
Sr4GeN4,0.9788
Ag5Hg4P8Cl5,0.9788
Sr3(GeN2)2,0.9788000000000006
Tl2Sn(AsS3)2,0.9788999999999994
Li32Mn3Cr13O48,0.9789
Li6Co2OF11,0.9789
Mn(SeO3)2,0.9789
Li9Mn2Co5O16,0.9789000000000004
CeSe2,0.9791
Li3Mn(BO3)2,0.9791000000000004
BaPt2S3,0.9791999999999996
UAgIO6,0.9791999999999996
Li3Si2(NiO4)2,0.9791999999999998
Cr(C2N3)3,0.9792
PdBr2,0.9792
LiVTeO5,0.9792
Sr3Fe2Cl2O5,0.9792999999999998
HgWO4,0.9793999999999996
LiCo6(OF5)2,0.9794
Li3Mn(OF)2,0.9794999999999998
Li3Mn(BO3)2,0.9796
CeSe2,0.9796
Ca2P2O11,0.9798
KTb2CuS4,0.9798999999999998
Sr4Sb2O,0.9799999999999996
KMn3O6,0.9801
CeSe2,0.9802
CaV4O10,0.9802
MgNi2(SbO3)4,0.9802999999999996
Li9Cr5(SiO8)2,0.9802999999999996
CdCu2SiS4,0.9802999999999996
Li3Mn(BO3)2,0.9802999999999996
VO3,0.9803
V(PO4)2,0.9803
Li2MnV3O8,0.9803000000000002
Li4V3P8O29,0.9804
VP2O7,0.9804
Gd2V2O7,0.9804999999999996
Li3Mn(BO3)2,0.9809
Ag2(MoO4)3,0.9809
Li4MnO2F3,0.9809
Er2MgCr2O8,0.9809
Li7Mn4CoO12,0.9809
Li4Mn3O7,0.9809
CaFe2Cu3(SbO6)2,0.981
FeSCl7,0.981
CaLa2Co2Sb2(PbO6)2,0.9810999999999996
Li9Mn7O16,0.9811
Li32Mn3Cr13O48,0.9811
MgFe12(OF)12,0.9811
CsLa(NbBr3)6,0.9812
Cr4OF11,0.9814
K2MgCr2Cd(H2O5)2,0.9815
MnIn2O4,0.9815000000000004
Nb(SeI)2,0.9815999999999998
KRbMg6O7,0.9816000000000004
Rb2Nb2P2S11,0.9816000000000004
CrAgS2,0.9816000000000004
MnPO4,0.9817
Li2TiMn2O6,0.9817
Cr2Cu3(OF)12,0.9817
Sr(MgSb)2,0.9817999999999998
SrTaNO2,0.9817999999999998
RbDyS2O9,0.9818
SmBiTe3,0.9818000000000008
CoPO4,0.9819
K2(TcS2)3,0.9819
Cs2SbAuF6,0.9819
Li2MnSiCO7,0.9821
Mn3H24(O3F2)4,0.9821
SrFe5P5O22,0.9821999999999996
Si2SbC7Cl2,0.9822000000000002
Te2MoWSeS,0.9823
Li6MnO4F,0.9823
MgCd2(FeO2)4,0.9823999999999996
BaAlO5,0.9824
Sr3AlAs3,0.9824000000000002
CsMnF4,0.9825
Li3V3P8O29,0.9825
Li3V3P8O29,0.9827
CoH8S2(NO2)4,0.9827
BaErAgS3,0.9827999999999996
CeSe2,0.9828
MgNi(TeO3)4,0.9829
V(SO4)2,0.9829
MnNi3O4,0.9829999999999997
Ti3Fe5O12,0.9831
Li3V3P8O29,0.9831
CeSe2,0.9831999999999996
SrPb3S4,0.9832
CoSnO3,0.9832
Cs3AuF6,0.9832
Cs3KZr2(Si3O10)2,0.9832999999999998
MgV4O7F5,0.9833
LiPr2(BrO2)2,0.9833
Li5V3P8O29,0.9833
KH18OsN6(ClO2)4,0.9834
Li3Ta12O31,0.9834
PRhO4,0.9836
MgCo2(SbO3)4,0.9836999999999998
NbNO,0.9837
Tc3Se4I,0.9837000000000002
Ag15W7N19,0.9837999999999998
CaGaCu3Se4,0.9838
CeSe2,0.9838
BaCaV4O8,0.9838
MgFe6(OF)6,0.9839999999999998
Sr4CrN4,0.984
Li3Fe2(OF)3,0.984
Li4MnCo2O7,0.9840999999999998
LiCaSb,0.9841000000000002
Li2V3O6,0.9841999999999996
CsTeSe3,0.9842
Li4MnNb2WO12,0.9842
K2VAgSe4,0.9843
LiMnAsCO7,0.9843
Li3Co5OF11,0.9843
RbNb3CuCl9,0.9843000000000002
Zr3N4,0.9844
Na3P3O10,0.9844
MgZn2CuWO6,0.9844000000000004
Li4Ti4Mn4CoO18,0.9844999999999996
NaCePCO7,0.9845
Li2CrO2,0.9845999999999996
Li3V3P8O29,0.9846
Li4MnCo2O7,0.9846000000000004
Li32Mn3Cr13O48,0.9846999999999996
Cd(HO)2,0.9847
Cs6ZnGe8,0.9847
VS4,0.9848
MgFe12(OF)12,0.9848
KZnCl3O,0.9848
KBaSb,0.985
SrDyCoO4,0.985
Li5MnO3F2,0.9852
CeSe2,0.9852000000000004
TiFeTe,0.9852000000000009
LiV3O5F,0.9853
CsSm(NbBr3)6,0.9853
K2RbGaI6,0.9854
BaSrVBiO6,0.9855999999999998
BaNi4O7,0.9855999999999998
Ho2MgCr2O8,0.9856
BaAuO2,0.9856000000000004
Li4Bi2S7,0.9856000000000004
Cs2LiMoI6,0.9856000000000004
Si3P3Ir,0.9857000000000004
AlC3NCl3,0.9859999999999998
Al4GaSb5,0.9859999999999998
Ca5Cr3ClO12,0.9861
Ba2Mn3(SeO3)6,0.9861
Li6V3P8O29,0.9861
Rb2CuSbF6,0.9861999999999996
LiMn4P7O24,0.9861999999999996
MgV4O8,0.9862000000000002
Na6Mg(CoO3)2,0.9863
Rb2Pb4O7,0.9863
Ba4SiAs4,0.9863
Sm9Ga5Se21,0.9863
Ca(WO2)2,0.9864000000000002
Li7Mn5O12,0.9865
Li6V3P8O29,0.9865
CaNiO2,0.9865999999999996
Sr2CrCuSO3,0.9866
Ba3Bi2I2O5,0.9866
MgFe4(CoO4)2,0.9866000000000006
Rb6V6P6O31,0.9866999999999996
Cs2Pd3Se4,0.9867
Y(FeO2)2,0.9867
Dy6Mn(SiS7)2,0.9867
LiV2P4(HO8)2,0.9867
KNa5TeO6,0.9867
ZnMoAsO5,0.9867
Li4TiCo3O8,0.9867
CeSe2,0.9867
Te2MoWSeS,0.9868
Hg3(AsO4)2,0.9869
KInTe2,0.9869
KOsNOF5,0.9869
SrLaMnSnO6,0.9869000000000004
Cs6K3AlSb4,0.9869999999999997
Mg(WO3)4,0.987
TiH42N14Cl3,0.987
Na3SbSe4,0.9871
Mg(MoO3)4,0.9871
Na7Cu3O8,0.9871
BaMoI4O15,0.9874000000000004
Ti5Mn3O16,0.9875000000000004
Al2Zn2S5,0.9875999999999996
LiMoP4O13,0.9876
CeSe2,0.9877000000000002
CeSe2,0.9878
Sb3P3O13,0.9878
KNaCuP4H18N4O15,0.9878
MnP2O7,0.9878
La12Ge5S28,0.9878999999999998
Zn3Sn2O7,0.9878999999999998
Na4VO4,0.9879000000000002
Ca(SnO2)2,0.9879999999999995
MgV4O7F5,0.9879999999999998
Sr3Nb4O13,0.988
V3(O2F)2,0.988
MgMn4Zn2O8,0.988
CeSe2,0.9881000000000002
MgTi2Mn4O12,0.9882
MgV6O5F19,0.9883
Sr2TiMnO6,0.9884
Li6Mn2O5F2,0.9885
Sr3(SnP2)2,0.9885000000000002
Li2MnV(PO4)3,0.9885000000000002
CsTaGeS5,0.9885000000000002
Ti2AgN3,0.9886999999999996
Li3MnBAsO7,0.9887
AcFeO3,0.9887999999999996
Sr3Fe2Br2O5,0.9888
Li3MnCoO5,0.9888000000000003
Eu4Cl6O,0.9888000000000003
Si2O3,0.9889
La6Sm2Cr3(FeO4)5,0.9889
Ba3SrEr2(MoO6)2,0.9889
NaPF3,0.9889
GaSb2N3,0.9889
Li3BiS3,0.989
V2NiP2(H4O7)2,0.9891
CeSe2,0.9891
Te6IrI3,0.9892
MnP2O7,0.9892
NbAgO3,0.9892
Sr5Co3F19,0.9893
SrMg6TiO8,0.9893
Mg30VCoO32,0.9893999999999998
Na5Ca2Ge2P5SO24,0.9894
Li2CuB4(PbO5)2,0.9895
K2MnSe2,0.9895
MgZn2(MoO3)4,0.9895000000000004
MgNb2V2O8,0.9895999999999994
CaSc4(Si2O7)2,0.9896000000000004
NaPt2Se3,0.9897
MgFe2(BiO3)2,0.9897
Li6Mn3CoO10,0.9897
Li3Co2(PO4)3,0.9897
K3ClO,0.9897
V2(PO4)3,0.9898
CeSe2,0.9898000000000002
TiVO4,0.9899999999999998
Pr2MgMn2(GeO5)2,0.9899999999999998
AlZnH10O7F5,0.9899999999999998
BaZrS3,0.9900000000000002
Nb(SeBr)2,0.9901
CoO2,0.9901999999999996
CeSe2,0.9904000000000002
Sr3Cr2O8,0.9905
CaTiMo(PO4)3,0.9905
ErC8N4Cl7,0.9905
CeSe2,0.9905000000000002
MnZn(GaSe2)4,0.9906
Li5Fe3(SbO5)2,0.9907000000000004
Ba2C4O9,0.9908
LiMnOF2,0.9908
CoP3H15C3NO12,0.8513000000000001
Rb3GaP2,0.8513999999999999
Rb4MgV4O10,0.8513999999999999
KHC(NO)2,0.8514999999999999
Fe6O5F7,0.8514999999999999
Te4MoW3(SeS)2,0.8515000000000001
In2Te5,0.8515000000000006
RbErS2O9,0.8516999999999999
Nb2Sn2O7,0.8517000000000001
K9Bi5O13,0.8517999999999999
Na5BiO5,0.8517999999999999
Li2MgCr3(SO4)6,0.8518000000000003
Fe(MoO5)2,0.8519
Ca3(InN2)2,0.8519000000000005
Te2MoW3(SeS2)2,0.8519999999999999
Ba10MgMn6(O12F)2,0.8521000000000001
TeWS,0.8521999999999998
Tb2Cl3,0.8523000000000005
Ba2YCu2F11,0.8523999999999999
Cs2AgBiI6,0.8526
Li4V3P8O29,0.8526
YCuO,0.8527
Cd4SF6,0.8527
BiN,0.8527000000000005
Rb2AlOF5,0.8528000000000002
HfCrAgS4,0.8528999999999995
GdBi2ClO4,0.8529
Li4Cr3CoO8,0.8529
Li3CuSiO4,0.8529999999999998
YbV4O8,0.8531
Cs2InBiBr6,0.8533999999999999
MgFe2(CoO3)4,0.8533999999999999
Na2CuBiBr6,0.8534000000000002
Cr8O21,0.8535
Li12V3CoP4(CO7)4,0.8535999999999997
Cs2CuMoCl6,0.8535999999999997
Li10V(SiO5)2,0.8535999999999997
LiFeF5,0.8535999999999997
Na2Zn2Si3Sn6(S3O16)3,0.8536000000000001
La7SmCrFe7O20,0.8537999999999997
Nd2C3O17,0.8538
K3Mn4P5H3O20,0.8538000000000001
Eu4Br6O,0.8538000000000006
CeSe2,0.8538999999999999
MnBiS2Cl,0.8539999999999992
LiTaS2,0.8540999999999999
Li3V3P8O29,0.8541
MgSn8(P2O9)2,0.8541999999999996
MgWO5,0.8542
LiCoPO4,0.8542000000000001
Rb2TlInI6,0.8542000000000001
Rb2CuMoCl6,0.8542000000000001
MnNi(BiO3)2,0.8542000000000005
Mg(FeO2)2,0.8542000000000005
VOF,0.8542999999999998
K2CuSbF6,0.8543000000000003
Te4W3Se2,0.8543000000000003
Li4V3P8O29,0.8543999999999999
SrBiS2F,0.8544
Ba4TiN4,0.8544000000000005
Sr8MgMn6O20,0.8544999999999998
Li2Ti2V5O12,0.8546999999999998
YMg14NiO16,0.8548
MgSc2Cr2O8,0.8548999999999998
Cd(PbN)2,0.8549000000000002
BaCu(Si2O5)2,0.8549000000000002
Li3Fe9O5F11,0.855
Li4Ti3V3(SbO8)2,0.8550999999999997
Li32Ti5Cr11O48,0.8551000000000002
TeMoWSeS2,0.8551000000000002
Cu3P15I2,0.8552999999999997
Si3Os2,0.8552999999999997
Zn3CdSe4,0.8553
CeSe2,0.8553
NaMgCr2In(H2O5)2,0.8553999999999999
Y2SiGe2S5O24,0.8554999999999999
BaNaP,0.8555000000000001
YbV4O8,0.8556000000000004
PrI3O10,0.8556999999999999
CaMnWO6,0.8556999999999999
NaMn8O16,0.8557999999999999
Li5Fe8(BO3)8,0.8557999999999999
LiVCrP2(O4F)2,0.8559000000000001
Ca(Al3Te5)2,0.8559000000000001
Li4V3Cr3(FeO8)2,0.8561000000000001
CeTl5Ni2(NO2)12,0.8561999999999999
Mn3P3PbO12,0.8563000000000005
Li5V2Fe5O12,0.8563999999999998
Rb2UMo2O11,0.8563999999999999
K4Zr3Te17,0.8564000000000003
Cs2AsAuF6,0.8564999999999998
Na14Mg4Si7Ge4S5O48,0.8565
Ba2Ni(PO4)2,0.8565999999999998
Mn(GaSe2)2,0.8566
Cu2SiS3,0.8566000000000003
Li9Mn7O16,0.8566000000000003
Ba2NdMgNb(CuO4)2,0.8567
Li3Al2CoO6,0.8567999999999998
Li6V3P8O29,0.8567999999999999
MgFe4(TeO6)2,0.8568000000000002
Ca3ScCoO6,0.8569
CoC8(SF3)4,0.8569
BaSnS3,0.8569
Te4Mo2WSe2,0.8569999999999998
Rb2CoCl4,0.8570000000000001
FeSi7N10,0.8570000000000002
InAgGeSe4,0.8570000000000002
Mn3O4,0.8571
BaGdAuSe3,0.8572000000000002
Sr9Cr5O18,0.8572000000000002
LiV(PO4)2,0.8573000000000001
Li2Mn2P4H6O17,0.8574
MgMn2(OF)2,0.8574999999999999
V2O3F,0.8574999999999999
Li4Mn3O7,0.8574999999999999
Ca3Y3N5,0.8575999999999997
SbTeOs,0.8576000000000015
Mn2InO5,0.8576999999999995
MgTi(CoO3)2,0.8576999999999999
Cs2Ti2S9,0.8578000000000001
Te4MoBr,0.8579000000000003
Ta2TcRu,0.8579999999999997
RbCu(PO3)3,0.8580999999999999
Gd2MnS4,0.8582999999999998
Li3V2(O2F)2,0.8582999999999998
V4OF11,0.8583000000000001
Ca11(CN5)2,0.8584
Ca2Cr3O8,0.8584000000000003
MgV3FeO8,0.8585000000000003
MgMn2(GeO3)4,0.8586
V2O3F,0.8587000000000002
Li6MnV3(PO4)6,0.8588
Ag2PSe3,0.8588
K2Fe4O7,0.8588
BaHfS3,0.8588999999999998
Cs2IBrCl6,0.8589
Li3V2(PO4)3,0.8590000000000002
Li4MnCo2O7,0.8591000000000002
Li4Mn3O7,0.8592
Rb2Ba6Sb5HO,0.8593000000000002
CrHg5O6,0.8593999999999999
Li9Co7O16,0.8594999999999997
V2OF5,0.8596000000000001
Li4Mn2Fe3Te3O16,0.8597999999999999
CsNb2PSe10,0.8597999999999999
Cs2MnBi2S5,0.8597999999999999
AlWO3,0.8598999999999997
Li3Al(CoO3)2,0.8599000000000001
Y2MnFeO6,0.8599000000000006
Bi4Te2Br2O9,0.8599999999999994
K2AlAuCl6,0.8600000000000001
TaMnNO2,0.8600000000000003
Li4Cr3CoO8,0.8600999999999996
NiPO4,0.8601000000000001
Li3V3P8O29,0.8601000000000001
V3(O2F)2,0.8601000000000001
Li4MnCo2O7,0.8601999999999999
MgV6O5F19,0.8603
Li8Mn12Ni4O31,0.8603000000000001
Li2Mn2F7,0.8603000000000001
LiNb(PO3)4,0.8603999999999994
LiMnVP2(HO5)2,0.8605
MgFe4(HO2)4,0.8605
TiFeSe,0.8605999999999998
Nb2TeO8,0.8606
MgMn9CdO10,0.8606000000000003
Li3V3O3F5,0.8607
YSbTe3,0.8608000000000002
CdHg6(Sb2I3)2,0.8608999999999998
Na8MgMn2O8,0.8609
K5MoC7N7O,0.8609
Pr(SiP3)2,0.8609999999999998
K2TlAsI6,0.8611
MgV3CoO8,0.8611
Cs2AlCuCl6,0.8611999999999997