formula,band_gap (MP)
Na2MnO2,0.7000000000000002
CaMnSi2O7,0.7001
Li4V3P8O29,0.7001999999999999
Co6OF11,0.7002000000000002
Li9Mn7O16,0.7002999999999999
Li3Cu3(PO4)2,0.7003000000000004
SrTaNO2,0.7003000000000004
Ba3(NaSb2)2,0.7003999999999997
NdLuS3,0.7004999999999999
AlGaAs2,0.7004999999999999
Mg4Mn5(TeO6)3,0.7005999999999997
CaFeBiO5,0.7006000000000001
K2Ni3S4,0.7006000000000001
Li9Mn2Co5O16,0.7006999999999999
KMn2P2HO9,0.7007000000000001
MgW2(BrO)4,0.7007000000000001
Rb2CuSbI6,0.7008000000000001
BaCa2(CoN2)2,0.7009000000000001
Ba2Mg(BiO3)2,0.7009999999999996
Sm3CuSe6,0.7010000000000001
Li3MnV(PO4)3,0.7010999999999998
Li5FeS4,0.7011000000000001
Sr3Fe2MoO9,0.7011000000000003
Sr3GaAs3,0.7012
Li3V3(BO5)2,0.7012
LiCuS,0.7014999999999998
Li2Cr3SnO8,0.7014999999999998
YCrO4,0.7015
K3Zr4Ag2F23,0.7016999999999999
Na4Co2O5,0.7017
MgTi3(SnO4)3,0.7017000000000007
MgTi2S5,0.7018
LaMn2CdO6,0.7018000000000004
UN2O7,0.7019
K2LiH2(SeO3)2,0.7019000000000001
KMg14CO16,0.7019000000000002
FeBiO3,0.7019000000000002
CoPO4,0.7021
Li4Mn3O5F3,0.7021999999999999
Sn7GeN6,0.7022000000000004
V2CdO10,0.7022999999999999
TiV4FeO12,0.7023000000000001
Li4MnCo2NiO8,0.7024000000000004
CdSnPd2,0.7024000000000004
LiCoSiO4,0.7024999999999999
LiMo2(PO4)3,0.7024999999999999
Li4V3P8O29,0.7025
Li3MnV(PO4)3,0.7026999999999999
LaSm(CoO3)2,0.7027000000000001
MgCr4Hg4(H2O9)2,0.7027000000000001
Ba2LaMgTa(CuO4)2,0.7027000000000001
Nb3TeCl7,0.7027000000000001
CaCu3(GeO3)4,0.7027999999999999
CoPNO10,0.7028
CsCu3GeSe4,0.7029999999999998
KLiWO5,0.7030999999999998
K2MnPCO7,0.7031
KSn,0.7031000000000001
FeSiO3,0.7031000000000001
CaAl2H4Pb2(O2F3)2,0.7031000000000001
Li9Co9O17,0.7031999999999998
Sr13Mn8O30,0.7031999999999998
Nb(Te2I3)2,0.7032000000000003
Li3Mn2(SeO3)4,0.7033
KNaMg6O7,0.7033
Lu2CdSe4,0.7033000000000003
Ga2CoO4,0.7034000000000002
Li7Mn2(CoO4)3,0.7034000000000002
SmTlTe2,0.7035999999999998
CaMn9CdO10,0.7037
Ni3SnH12(OF)6,0.7037000000000001
Fe39Si3O56,0.7038000000000002
Tb2Ti2S2O5,0.7039
KSe,0.7039
Mg30MnCrO32,0.7039000000000009
Pr5S2N3Cl2,0.7040000000000002
HfMg6WO8,0.7040000000000006
Si7PdN10,0.7040999999999995
Rb4CuSi2O7,0.7041
NaCa2Sn2PS5O24,0.7042
Li3La7(FeO8)2,0.7042000000000002
NiH6(SO6)2,0.7043999999999999
Yb11AlSb9,0.7045000000000003
Li7Mn5O12,0.7046000000000001
Li5Mn3O8,0.7046000000000001
Li4MnV3(PO4)4,0.7046000000000001
Cs2Cu3SnF12,0.7047
Li2V3O6,0.7047000000000003
CaH2,0.7047000000000003
MgFe4O5F3,0.7048000000000001
CaMnFeBiO6,0.7048999999999994
MgV4(OF2)4,0.7050999999999998
TaSi2H35(C3N)4,0.7052
TlSbPbS3,0.7052
ErC3O8,0.7052
Li3NbP3O11,0.7053000000000003
NaCrO2,0.7054
Cs3Pb4Au,0.7054
Li7Mn4CoO12,0.7054999999999998
GaCuS2,0.7056000000000004
BaZrInSbO6,0.7056999999999993
Al(Ag3S2)3,0.7057
ZrCrAgS4,0.7057000000000002
Li9Mn2Co5O16,0.7057000000000002
HgC4Br3N,0.7057999999999998
Sr2YAlV2O7,0.7058
Li2FeCo3O8,0.7058
KCrF3,0.7059000000000002
Mg14AlBO16,0.7059999999999995
RbAuI3,0.7061000000000001
Te(NCl3)2,0.7061999999999997
Sr2TaNO3,0.7061999999999999
TeSe,0.7062000000000008
CrCo3O8,0.7062999999999999
Mg6ZnBiO8,0.7063000000000006
HfMg14CO16,0.7063000000000006
Sm31(CuSe16)3,0.7063000000000006
LaWN3,0.7063999999999995
Li9Co7O16,0.7064000000000004
ZrCuRh2,0.7065999999999999
LiSm2Cr2O8,0.7065999999999999
Ca5As3CO12,0.7066000000000003
Li4Fe5(NiO6)2,0.7066000000000003
K8MgCo2(Mo4O15)2,0.7067000000000001
Li3Cu3(PO4)2,0.7068000000000003
Na3Mg(CoO2)5,0.7069999999999999
MgV12Zn6O24,0.7070999999999996
NbTe2(SeI3)2,0.7070999999999998
MgAg20(BiO4)4,0.7071000000000001
Ba2DyInTe5,0.7071000000000005
Li7Mn5O12,0.7072000000000003
CoPH6NO5,0.7073
Te2Cl,0.7073999999999998
Li3Sb,0.7073999999999998
Cd2SeS,0.7074
SmTlS2O9,0.7074
NaTlO2,0.7075
Li7Mn4CoO12,0.7075
Li9Mn2Co5O16,0.7075
Li3V3P8O29,0.7075
Li4MnCo2O7,0.7075999999999998
Li3Mn4(BO3)4,0.7077
YMg6ZnO8,0.7077000000000009
Zr3Tl2(CuS4)2,0.7078000000000002
SnSb4S7,0.7078999999999995
Li5Cr17(SiO16)2,0.7080000000000002
K2Y4Cu4Se9,0.7081000000000004
CsK2As,0.7081999999999999
CuH12N2(OF2)2,0.7082
SrCaNdFeO6,0.7082000000000002
Li7Co5O12,0.7082000000000002
KMg3Cu(AsO4)3,0.7082000000000002
BaLaMnInO6,0.7082000000000006
Li9Mn7O16,0.7082999999999999
Na6Y6Nb2Si5S7O48,0.7083000000000002
MgFe2Mo2(ClO4)2,0.7083000000000002
Hg(AsO3)2,0.7083000000000004
Mn2CrO6,0.7083999999999999
CsPr3CI6,0.7084000000000001
LaMgCrS4,0.7084000000000001
Rb3LiErV2O8,0.7084999999999999
MgCu4Ag2(PS4)2,0.7084999999999999
Cr4O15,0.7085999999999999
Yb2S2O,0.7086999999999999
CaSiSn3S5O24,0.7087000000000001
Nd5(Mo16O27)2,0.7088000000000001
RbNiCl3,0.7089000000000001
Li7Mn2(CoO4)3,0.7089000000000003
NaCo2O3,0.7090000000000001
AgHg3SbO6,0.7092999999999998
Mn2Sb2O7,0.7092999999999998
Li2Ti(OF3)2,0.7093
Li4V3P8O29,0.7093
Fe2(Se2O5)3,0.7093999999999999
NaCu(PO3)4,0.7094
Ag(CO)2,0.7095
Ca6Si6O19,0.7095
K2P3,0.7095000000000002
SrLiLa3FeO8,0.7097999999999995
KBaP3O10,0.7098
K2RhAuF6,0.7098
MnZn4O5,0.7099
UMnO4,0.7099000000000002
Mg6CdSiO8,0.7100999999999997
MgAu4Se4(ClO3)4,0.7101
Tl5Se2I,0.7101999999999995
NdN3O13,0.7101999999999999
CsMnP3HO10,0.7102
Ba2UInO6,0.7102000000000004
Mg(ScSe2)2,0.7102000000000004
La2CuTe4,0.7102999999999993
CsRbAu2,0.7103
Cs3InP2,0.7103000000000002
Cu2(ReS2)3,0.7103999999999999
Pu2SiO10,0.7104
LiFeP2O7,0.7104000000000001
LaMg2H7Pd,0.7104999999999997
Mn2Fe(PO4)3,0.7105999999999999
Mg3Si4(WO7)2,0.7106999999999992
Li3V3P8O29,0.7106999999999999
Li9Mn2Co5O16,0.7107000000000001
MgV4Sb2(PO4)6,0.7107999999999994
Li4V2OF7,0.7107999999999999
Sb2C6(Br3N)3,0.7109
SnAs2O9,0.7109
Sr(CdP)2,0.7109000000000001
Li2Cr3NiO8,0.7109999999999999
CsNaMoO6,0.711
SbC2SCl3O,0.7110999999999998
KHgBr3O,0.7111000000000001
Ba(YTe2)2,0.7111999999999998
CsSnN,0.7113999999999994
Na3MnO3,0.7114
Li2Mn3P5O18,0.7114000000000001
SrCaTiMnO6,0.7115999999999998
Sr3Mg(FeO3)2,0.7116000000000002
CaCrO2,0.7117
Ba5Nb3O3F20,0.7117
RbMg14CoO16,0.7117999999999993
Li4Mn2V3O12,0.7118
NdTlTe2,0.7119
Sr2CoCO3F5,0.712
Cr4OF11,0.712
Li3Co2(CO3)4,0.7120000000000001
Li2NiO2F,0.7120000000000002
CoO,0.7120000000000002
ScCuSe2,0.7120000000000006
Li2MgCo13O28,0.7121
MoW2(Se2S)2,0.7123000000000002
Mn2Si5N8,0.7123999999999997
Li2MnCoO4,0.7124999999999999
AlCuSnS4,0.7126999999999999
Ca4Mg4V3AsO20,0.7126999999999999
KCoH2CN4O7,0.7127000000000001
MgV2(Ga2O5)2,0.7127000000000008
Mg14SiSnO16,0.7127999999999997
HgNO4,0.7127999999999999
CrCl2,0.7128999999999999
Li4MnV3O8,0.7128999999999999
Li3SiNiO5,0.7130000000000001
BaSr(SnO3)2,0.7130999999999998
BiC8N4Cl7,0.7131000000000001
Ba2YCr3O7,0.7131999999999996
CeSe2,0.7131999999999998
C,0.7132000000000001
Mg6TiVO8,0.7134
Na3FeO4,0.7134
LiNbS2,0.7134999999999998
Sn,0.7135000000000002
SiAg5O4,0.7138000000000002
CeSe2,0.7140000000000004
Cr3FeO6,0.7140999999999997
Ca2Mg(PO5)2,0.7141
Na2MgCu2TeO6,0.7141000000000002
CaSnS3,0.7142
LiMn(SiO3)2,0.7142
Li2MgCo13O28,0.7142
Mg(CoO2)2,0.7143000000000002
Cs3Sn4Au,0.7143999999999999
H24Rh2(N4O5)3,0.7143999999999999
RbSO2,0.7143999999999999
MgTe(ClO)6,0.7145000000000001
Ba2InSbTe5,0.7145999999999995
Mg6CoSnO8,0.7145999999999999
V2FeO4,0.7147000000000006
CuH14C4(NO2)4,0.7148
LiCa7(GeH)3,0.7149000000000001
Nd9Ga5Se21,0.7149999999999999
KGdPdO3,0.7150000000000001
TlPO4,0.7150999999999996
Na6Sn4Ge5O22,0.7150999999999998
MoN2Cl5O,0.7151000000000001
GaCuPd2,0.7151000000000001
RbMnP3HO10,0.7153
Sn4TeSe3,0.7153
Na2Ca4Nb4Si3(S3O16)3,0.7154
KZr6BI14,0.7154000000000003
Mg(WO2)2,0.7154999999999996
Sr2FeO3F,0.7155
MgNb2V2O8,0.7155000000000005
K2U2Cr2O15F2,0.7156
DyTlTe2,0.7156000000000002
V5FePbO11,0.7157999999999998
Zn2Ni3O8,0.7159
MnSb3XeF23,0.7159
Te4W3Se2,0.7159
TlInO2,0.7159000000000004
BaP2PdO7,0.7159999999999997
W3(Se2S)2,0.716
MnBiSe2I,0.7160000000000002
Ta2AgF12,0.7160000000000002
Li7Mn2(CoO4)3,0.7160000000000002
K2Co(SO5)2,0.7162
Tb2Cu(GeO3)4,0.7162000000000002
YSbO3,0.7162000000000006
CaMg14SiO16,0.7162000000000006
Hg4Sb2I3,0.7163999999999997
KMnP3HO10,0.7163999999999999
LiCrP2O7,0.7164000000000001
ThSnPt,0.7164999999999999
Ba3TiF12,0.7164999999999999
K2InCl5O,0.7165
Li3V3P8O29,0.7165
MgMnCo3O8,0.7166999999999999
Si(NF2)2,0.7167999999999992
Cu6Mo5O18,0.7167999999999997
GaAgS2,0.7168000000000001
Li4Nb3Fe3(SbO8)2,0.7168000000000001
Ca3AsN,0.7169999999999996
Li7Mn2(CoO4)3,0.7172000000000001
K2CoCl4,0.7173
Ho2Cu(GeO3)4,0.7174
Li9Mn2Co5O16,0.7174
Na2Ti2Se9,0.7175
Ni(C2N3)2,0.7175999999999999
Li4Mn3WO8,0.7176
Ga2CuAgS4,0.7176999999999998
BaYMgFeCuO5,0.7177000000000002
CsHPt2(SO4)4,0.7178
LiMnP3HO10,0.718
Mn(SbO3)4,0.718
Ba2NiF6,0.7181
Cu7H9(SN)4,0.7182
MgV2S4(Br2N3)2,0.7182
CsC10,0.7184999999999997
MgMn2(FeO4)2,0.7185000000000001
Cs2InAsBr6,0.7186999999999999
Ca3Cu3(AsO4)4,0.7189000000000001
Cd(FeO2)2,0.7189000000000001
Sm3InSe6,0.7189000000000001
TeMo2Se2S,0.7189000000000001
Li9Mn2Co5O16,0.7189000000000001
Er2Cu(GeO3)4,0.7189000000000001
K2Dy4Cu4S9,0.7189999999999999
Te2MoWSe2,0.7189999999999999
Li2V3O6,0.7190000000000003
EuAlF5,0.7191000000000001
Ba8Li13GaSb12,0.7191000000000001
Na2Te2O7,0.7191000000000001
MgMn4(FeO4)2,0.7191999999999998
Rb2AlTlH6,0.7191999999999998
Li2GaAg,0.7193
KYSn,0.7193
MgBr6,0.7193000000000005
Li2TiCr3O8,0.7193999999999998
Li9Mn2Co5O16,0.7193999999999998
Na5SnAs3,0.7194000000000003
MgCd2(CoO3)2,0.7195
Er4OsBr4,0.7195000000000005
MgV4O8,0.7197
Cr4(OF3)3,0.7197
Mn4NO8,0.7198
PrLuS3,0.7198000000000002
MgFe6Sb10(IO3)6,0.7198000000000002
Lu2S3,0.7199
Tb(CuTe)3,0.7199
Li4Mn3Nb2Sn3O16,0.7199999999999998
Ba2LuMgSbO6,0.7199999999999998
Mg2CoO4,0.7200000000000002
Li4Co5SnO12,0.7200000000000002
Pr2ZrSe5,0.7200999999999995
CoSb2O7,0.7201
NaCeP2H2CO7,0.7201000000000002
KNbWO7,0.7202000000000001
Yb11InSb9,0.7202999999999999
Ce2WO6,0.7202999999999999
Dy2Cu(GeO3)4,0.7202999999999999
Pd(SN)4,0.7204
Li6Mn5SbO12,0.7204999999999999
MgFe8(OF)8,0.7204999999999999
Sr4FeMoO8,0.7205999999999997
Ca9Si4O17F,0.7206000000000001
Na2ZnSi2Sn3(SO6)4,0.7206000000000001
Li4V4(OF3)3,0.7206999999999999
KLi2Mn2O4,0.7206999999999999
HfMg14FeO16,0.7208000000000006
La3SbO3,0.7208999999999994
LiMn(PO3)4,0.7209999999999999
Pr9Ga5Se21,0.7210000000000001
Sr2NbWO6,0.7211999999999996
FeNiAg2F7,0.7212
Cs2AgAuCl6,0.7212999999999999
KCu(BiS2)2,0.7213999999999996
Li17Ni11O28,0.7214
MgTi2(Fe2O5)2,0.7214999999999998
CaV6O11F,0.7215000000000003
Na2Al2Sb3,0.7215999999999996
Mo2SeS3,0.7216
K4Cu4Sn7,0.7216
V2Se9,0.722
MgV6O5F19,0.722
LiMn(PO3)4,0.7221000000000001
Li4Mn3O7,0.7222
NaMn(SiO3)2,0.7222999999999997
TiVO4,0.7223000000000002
Yb(SbTe2)2,0.7223000000000006
CuPHO4,0.7223999999999999
Li7V3P8O29,0.7224999999999999
MoW2(Se2S)2,0.7225999999999999
MnSe3O8,0.7225999999999999
La10S19,0.7225999999999999
Li7Mn5O12,0.7225999999999999
V2OF5,0.7225999999999999
Mn(PO3)3,0.7225999999999999
Na6Mg4Nb4Si5S7O48,0.7226000000000001
CsHgF3,0.7228
CaLa2CoO6,0.7228000000000003
Li6V5SbO12,0.7228000000000003
Sr3(InN2)2,0.7228999999999997
Li3Mn3TeO8,0.7228999999999997
K2Cr4CdO16,0.7229
Mg(FeO2)2,0.7229000000000001
RbLiMn3O4,0.7229999999999999
Fe(SiO3)2,0.723
LiCrFeO4,0.7231999999999998
Li2Cr(CoO3)2,0.7232000000000003
CaAl2Si2(WO4)2,0.7232999999999996
Al3P3C4NO13,0.7232999999999999
CaV4(CoO4)3,0.7233
Li3MnSi2O7,0.7233999999999998
MgV4O8,0.7233999999999998
SmFeO3,0.7234999999999996
Li3Co2O5,0.7234999999999998
Na2Mg4Nb4Si3(S3O16)3,0.7235
In2AgSe3Cl,0.7235
KAl2P2H4O11,0.7236000000000001
ZnCdSe2,0.7236000000000001
MgAg20(BiO4)4,0.7237
NaSb3O8,0.7238999999999995
Sr4MgMn2Ga2O11,0.7239
Na2CoO3,0.7239999999999998
Li12Mn2O9,0.724
Ba2AsBr,0.7240000000000002
Sr2LiLa2RuO8,0.7240000000000006
LiMn(PO3)4,0.7241
Ca4Mn3SbO12,0.7241
CeSe2,0.7241
Li2VO2F,0.7241
TbTlTe2,0.7241999999999997
MgV3CrO10,0.7242000000000002
Li3Cu3(PO4)2,0.7242999999999995
Ni(ClO)2,0.7242999999999999
Li3Mn2CoO6,0.7244000000000002
Cr3O4,0.7244000000000002
TlAgS,0.7244999999999999
NaWO4,0.7245
Li4MnCo3O8,0.7245999999999997
Cs5SiP3,0.7246000000000001
CsZr6MnI14,0.7246000000000001
H4N2O3,0.7247
Na3CoBPO7,0.7247000000000001
K2NaCuF6,0.7248
Tl2CuH12(SeO7)2,0.7248000000000001
Ag(CO)2,0.7248000000000001
Fe3Co(BiO3)4,0.7248000000000001
Sr3Y2N4,0.7248999999999999
KPbO2,0.7249999999999996
K4ZnAs2,0.725
Zn2InCuS4,0.7250999999999999
Mn3(AsO4)4,0.7251
Fe5Te(PO4)6,0.7252000000000001
MnBiO3,0.7252999999999998
RbLaSe2O13,0.7253000000000001
Li7Mn4CoO12,0.7254
CoTeO4,0.7254
Na3V(MoO7)3,0.7254
CaAl2H4Pb2(O2F3)2,0.7255000000000003
LiCa11Sb9,0.7256999999999998
Li9Co7O16,0.7257
SmMg2Cr3S8,0.7258
Ca(CoS2)2,0.7260999999999997
Ag3SI,0.7261000000000002
HgC6(S2N)2,0.7262
Li4Mn3O7,0.7262
Dy3CuSe6,0.7262
Ca2CuH6(CO2)6,0.7262
Mg30AlZnO32,0.7263999999999999
Li2MnAlO4,0.7265000000000001
NaMnPCO7,0.7266
Na2AgAs,0.7266000000000001
Bi2Te7Cl8,0.7266000000000004
YTlTe2,0.7266000000000004
LuAgS2,0.7266999999999997
Li2Cr3NiO8,0.7266999999999997
MoS3,0.7267000000000001
LiCr2(SO4)3,0.7267000000000001
CaMnAl4SiP3(HO4)5,0.7267000000000001
MoW2(Se2S)2,0.7267999999999999
Li5MnO4,0.7268000000000001
Ba13Si6(Sn4As11)2,0.7270000000000003
Cs2BaH6(NO6)2,0.7271
LiMnP2(HO4)2,0.7271000000000001
SrCaSmFeO6,0.7272000000000003
Ba5Mn5O14,0.7272999999999996
H(C3N2)4,0.7273999999999994
Mg2V2CuO8,0.7275
Mg(Fe2O3)4,0.7275999999999998
Mg14NiSnO16,0.7276000000000007
MgCu4Ag2(PS4)2,0.7276999999999996
Li3Cr3FeO8,0.7277
IrCl3,0.7277
K2LiH2(SeO3)2,0.7278
KLaC4O11,0.7278
Bi12RuO20,0.7278000000000002
Li5Mn5(SeO3)8,0.7279
Li3V3(BO5)2,0.7279
CaFeReO6,0.7279
MgFe5CuO8,0.7279
Mg2SbMoO6,0.7279
SrMgO2,0.7279999999999998
KLiMg14O15,0.7279999999999998
Rb2Bi4Se7,0.7279999999999998
CdBi8(Br5O4)2,0.7279999999999998
InAgSnSe4,0.7280000000000002
SrSmCoO4,0.7280000000000002
MgMn5O9F,0.7281
K2GeB4O11,0.7281
BiSbO5,0.7281000000000001
Li3Y(NiO3)2,0.7283
Co2C2O7,0.7283000000000001
Ba8In6O17,0.7284999999999999
Li3Cr3(NiO6)2,0.7284999999999999
K2(MoSe6)3,0.7284999999999999
MnPO4,0.7284999999999999
MgV12Zn6O24,0.7285000000000004
BaLaFeO4,0.7285999999999992
CrAgS2,0.7286999999999999
GaCuO2,0.7286999999999999
MgTl2Pb16(Br9O4)2,0.7287000000000003
Li3Mn3(PO4)4,0.7289000000000001
MgP4,0.7289000000000003
Mn2P2H7NO10,0.7290000000000001
EuCuTeF,0.7290999999999999
Sr2GaSbO6,0.7291000000000003
ZnSe2,0.7291999999999996
CeSe2,0.7291999999999998
Ba(FeBr4)2,0.7292000000000001
Fe4As2O11,0.7292000000000001
K2Dy4Cu4Se9,0.7292999999999998
RbAuBr3,0.7293
Na3Mg(NiO2)5,0.7293000000000001
BaHfInSbO6,0.7294
Sr2MgZnWO6,0.7294
Y6Ge2O13F3,0.7295
LiTiCoO4,0.7295000000000003
Ba8Mn8O23,0.7296
Sr2MgCoWO6,0.7296999999999998
MgCu2GeS4,0.7297000000000002
Sr4Sn2Se9,0.7298
Li2Mn3P9O28,0.7298
MgCrSbO4,0.7298999999999998
NaIO4,0.7299
Ca3AlAs3,0.7300999999999997
Al2Pb3N4,0.7301000000000002
MgTiZn(BiO3)2,0.7302999999999997
MnZn4Se5,0.7303
Li4MnO3F,0.7303
Li3V3P8O29,0.7303
In2(PSe3)3,0.7303000000000002
Li5V3P8O29,0.7304
HoTlTe2,0.7305000000000001
Ho5IrBr9,0.7305999999999999
Mg(Fe2O3)2,0.7306999999999997
Ca3Si4(AgO7)2,0.7307000000000001
Si5C3,0.7307000000000001
Ba21(Cd2Sb9)2,0.7307000000000001
BaAl2O6,0.7308
Ba3IrF6,0.7308
MgMn2Co5O12,0.7308000000000001
Na2CuAsF6,0.7308000000000003
Li3Co3(PO4)4,0.7309000000000001
Ca3LaTi2Cr2O12,0.7309000000000001
Ba2MnTe3,0.7309999999999999
Li9Mn2Co5O16,0.7309999999999999
Ca3Tl2O6,0.7309999999999999
Re2Cl5O4,0.7309999999999999
NaH4Au(Br2O)2,0.7311
NaErCu2F8,0.7312
Li5FeO4F,0.7312
HgHC3NCl3,0.7312000000000001
Fe4OF7,0.7312999999999998
Mn17Fe13O40,0.7313000000000001
MgV3O6,0.7313000000000005
Li3Mn(PO4)2,0.7314000000000003
KEuBiWO6,0.7314999999999996
Bi3Se2ClO8,0.7314999999999999
Ba2Ti3O8,0.7315
TeINO10,0.7315999999999999
Na2Zr3Zn5(SO4)12,0.7316999999999999
FeSi6(H27C10)2,0.7316999999999999
NaYbCO3F2,0.7317
ZnP2W2O9,0.7317
MnBPbO4,0.7317
Na2ScAuF6,0.7318
Ba5(CN3)2,0.7318000000000002
Mg30SiBO32,0.7318000000000007
LiNbSe2,0.7318999999999996
CsLiMg6O7,0.7319
Be2CoAu,0.7319
AlIn(CuS2)2,0.7319999999999993
Te2MoWSe2,0.7319999999999998
Li6MnAlO6,0.7321
Sr2MgCrSbO6,0.7321
Ba2LiY2(Fe2O5)2,0.7321999999999997
CoF3,0.7322
MgV3CrO10,0.7322000000000001
Ba4P3,0.7323
Ca6MnN5,0.7323999999999997
V3OF11,0.7323999999999997
Li9Co7O16,0.7323999999999997
BC2N,0.7324000000000002
Mg30NbSiO32,0.7324999999999999
MgAg20(BiO4)4,0.7324999999999999
Ba4Ge2Te5Se3,0.7326000000000001
Gd2CF2,0.7328000000000001
Zn(FeO2)2,0.7329000000000003
NaCaB5(H7O4)3,0.733
Li3Mn2CoO6,0.7330000000000001
Tb2S3,0.7330999999999994
SmRhO3,0.7331000000000003
SrClO,0.7333
BaAgO2,0.7334
Ca2CuAs2(H2O5)2,0.7334
Li7Mn2(CoO4)3,0.7334999999999998
GaCuGeSe4,0.7335000000000003
AsRuSe,0.7335000000000003
LiMn2O3F,0.7336
K3Pu(H3O4)2,0.7336000000000001
P4Ru,0.7336999999999998
CsAuI3,0.7337
Sr4LiMn2(GaO5)2,0.7337000000000002
Li4Ti3Cr3(FeO8)2,0.7337000000000002
ReP4,0.7338000000000005
LiCo5SbO8,0.7338999999999998
Li2MnV3O8,0.7338999999999998
K4Fe2O5,0.7339000000000001
CeVO4,0.734
CrSiO4,0.734
MgV4O8,0.734
Na3MnSiBO7,0.7340000000000002
BaSr7(Fe2O5)4,0.7341000000000002
Ga2TeO6,0.7341000000000006
Li3Mn5OF11,0.7342000000000002
K2Pd3Se4,0.7342000000000002
N2O3,0.7343
CeSe2,0.7343999999999999
Ca5BC4Cl3,0.7345999999999999
Mn2P4O13,0.7345999999999999
MnPO4,0.7345999999999999
Li2MnP2HO8,0.7346999999999999
Ba3Fe2P4(O6F5)2,0.7347
LiMnH4(SO5)2,0.7347
RbSb,0.7347000000000001
AlMoO3,0.7347999999999999
CePbO3,0.7348999999999997
Li6Mn3CoO10,0.7349000000000001
K3AuF6,0.7349999999999999
KSmPdO3,0.7349999999999999
Na3PH3S2N3O8,0.735
MgAu4Se4(ClO3)4,0.735
CuH28C10(N3Cl2)2,0.735
LiCr2(MoO4)3,0.7350000000000001
Sr4Mg(Fe2O5)2,0.7350999999999996
CdGeN2,0.7351000000000001
Cd2Cl4O5,0.7352999999999998
Li4VFe3O8,0.7353000000000001
Tb2MgNb2O8,0.7353000000000005
Re3(TeI)7,0.7353999999999998
Rb2NaCuF6,0.7354
VSi7N10,0.7355
Ba5V5O14,0.7356000000000003
Li7Mn4CoO12,0.7356000000000003
Hg3PO4,0.7357
MnBiS2Br,0.7358000000000002
Sr8MgMn6O20,0.7359
Ca(BeP)2,0.7359
TeI2,0.7359
TmTlO3,0.7359999999999998
Na2MnSiCO7,0.736
Na3Fe2Mo5O16,0.7362000000000002
NbSeBr3,0.7363999999999999
Na6CaSi4Ge3(SO12)2,0.7364000000000002
NaCr2P2O9,0.7364000000000002
LiCoSiO4,0.7364999999999999
RbCdGeAs2,0.7365000000000002
K6Na2Pt(WO6)6,0.7366999999999999
BaCoSiO4,0.7367000000000004
Mg(GeN)4,0.7367999999999997
ZrIN,0.7367999999999997
MgP(CO4)2,0.7369000000000001
CrN3O4,0.7370000000000001
Li9Mn2Co5O16,0.7370000000000001
Li9Co7O16,0.7370000000000001
K2MgFe(SiO3)8,0.7370999999999999
CuH8C2(N2O3)2,0.7371
Li3Mn3(PO4)4,0.7371000000000001
Rb2Mg(FeO2)2,0.7373000000000003
MgFe2Mo2(ClO4)2,0.7374
Ti3V2Fe(PO4)6,0.7374
CsSi3O7,0.7375999999999999
Mo3W(SeS3)2,0.7376
AlTlO3,0.7376999999999994
LiMnVP2(HO5)2,0.7376999999999998
VF4,0.7376999999999999
Hg2AsF6,0.7378999999999999
Fe4O3F5,0.7379
Y(FeO2)2,0.7379000000000002
MnAsO4,0.7379000000000002
Sm2Co2O5,0.7379999999999995
KLi2FeO3,0.738
Sr2CrN3,0.7380000000000004
Hg3(NO4)2,0.7381
Bi3Pb3N5,0.7382
Na8MgCr2O8,0.7382
SrPrMnNbO6,0.7382999999999997
SrEuZrGeO6,0.7382999999999997
Rb6Mg(FeO3)2,0.7384000000000002
Li3Cr3(CoO6)2,0.7384999999999999
Fe2P2O7,0.7385000000000002
Li7Mn4CoO12,0.7385000000000002
AgHg2AsO4,0.7385999999999999
CeSe2,0.7385999999999999
Li9Mn2Co5O16,0.7386999999999997
MgHg4(WO4)2,0.7387999999999999
UMnO4,0.7389000000000001
Nd2ZrSe5,0.7389000000000001
Cs3AlAs2,0.7389000000000001
Li2CuIrF6,0.7389999999999999
Li4Co3TeO8,0.7389999999999999
MgMnV3O8,0.7390000000000001
Au2O3,0.7390000000000003
NaLiMg6O7,0.7391999999999999
CaCuF4,0.7392000000000001
W3Se2ClO8,0.7392000000000001
MgMnSiO5,0.7393000000000001
KBa4Bi3O,0.7393000000000001
MgVS2,0.7393000000000001
Li9Co7O16,0.7393000000000001
Rb3FeO3,0.7393000000000001
Li2Al2Si4HO14,0.7394000000000001
Na7NbZn3Si3(SO8)3,0.7394000000000003
Ba2MgCuWO6,0.7394000000000007
Na4CdP2,0.7394999999999999
GdCrO4,0.7395
Li3Mn2P2(CO7)2,0.7395
Cs2Se3,0.7396
MgAl2(OF4)2,0.7397
MgV8Ge4(O2F)8,0.7397
Li3Cr5O8,0.7397999999999998
Li2Mn(PO4)2,0.7397999999999999
Fe3O4,0.7398999999999996
NaGdHf2O6,0.7399999999999998
CuH20N6OF2,0.74
Cs2Pd(IBr2)2,0.7401
Ho2MgV4O12,0.7401000000000004
K4MgV6O16,0.7402
MnBi2(IO)8,0.7402000000000001
WSeS,0.7402000000000002
Ba3Y2N4,0.7403
Fe(Bi5O8)5,0.7403000000000004
MgCo2(NiO2)4,0.7404000000000002
MnPO4,0.7404999999999999
Li3MnOF4,0.7405
Ba2SbBr,0.7405000000000002
Li6Cu(B2O5)2,0.7405999999999999
WS2(NCl)3,0.7406000000000001
V2Fe3Sb(PO4)6,0.7406999999999999
Cs2Sb2Pt,0.7406999999999999
VAg2HgO4,0.7406999999999999
V18Cu2O45,0.7408
Na2RhAuF6,0.7408
RhF6,0.7408999999999999
Sr3Ca(Fe2O5)2,0.7409999999999997
Li3V3P8O29,0.741
KZr2BiO6,0.7410000000000001
Li7Mn4CoO12,0.7410000000000001