formula,band_gap (MP)
Li2MnV(PO4)3,1.0845
Cr(PO3)3,1.0845000000000002
Yb(CuS)2,1.0845000000000002
Cd2AsCl2,1.0845000000000002
MgV4(OF2)4,1.0845000000000002
Sr15Al6(OF24)2,1.0846
Mg30BSbO32,1.0846
Cs2NaMoI6,1.0847
Li6V3P8O29,1.0847
Mo(WO4)2,1.0847000000000002
TeAsIr,1.0847000000000009
Rb2TlGaI6,1.0849
LiCoSiO4,1.085
CuP2(HO)4,1.085
MgFe6(OF)6,1.0850999999999995
LiEu2CBr3N2,1.0850999999999995
Li6V3P8O29,1.0851
K5CuCO5,1.0851000000000002
CSN2,1.0851999999999995
Gd2S3O20,1.0852
LiCoSiO4,1.0854
MgMn2O4,1.0854
Na(GeP)3,1.0854999999999997
MgFe10O9F11,1.0855
LiFeP2O7,1.0855
Na6CaSi6Ge7(SO8)6,1.0855
Rb2NaMoI6,1.0856
Na5Fe2P2(CO7)2,1.0857
AgSbPbS3,1.0857
Ba3SnS4,1.0857
In10(Pb2S7)3,1.0858
Sr2PdPt,1.0858
Yb(YSe2)2,1.0859
K2NaMoI6,1.0859
TiI4,1.0859
Li3Fe2(SiO4)2,1.086
Li4Nb3Fe3(SbO8)2,1.0861999999999998
Ba2Ti4Fe2O13,1.0861999999999998
LiFe2(PO4)2,1.0862
BaGdCuS3,1.0862000000000005
Li5V3P8O29,1.0863999999999998
Mn(PO3)3,1.0864
NbFeO4,1.0865
LiMo2(PO4)3,1.0865
HfZrS6,1.0865999999999998
LiFe2(PO4)2,1.0865999999999998
Li4NbCo3O8,1.0866
Li7W5O16,1.0867999999999998
P2RhClF6,1.0868
Co3CuH56(SO11)4,1.0868
NiH4C2(S2N)2,1.0868999999999998
Li3Fe2(SiO4)2,1.0869
Rb2Hg3Se4,1.0869
Li10Sn(PSe6)2,1.0869000000000002
B6P2H14N2O19,1.0871
Fe6O5F7,1.0872000000000002
Li2PbO3,1.0872000000000002
Rb3CoCl5,1.0873
Na15Mg7Nb5Si9(SO8)9,1.0873000000000002
V2(OF)3,1.0874
CSN2,1.0874
LiCoSiO4,1.0875
Dy2CdS4,1.0877
SnPbS2,1.0877
Li6Cu(B2O5)2,1.0877
Cd2P3I,1.0877000000000003
ErCu(WO4)2,1.0878999999999994
MgSnO2,1.0879999999999996
MgCrSF5,1.088
Li2Mn2Si4O11,1.088
LiAlVO4,1.0880999999999998
RbGe2N3,1.0881000000000007
LiCoSiO4,1.0881999999999998
SmFeO3,1.0882
Zr6CoCl15,1.0883000000000005
FeO,1.0884
NaMgMn2O4,1.0884999999999994
Sm4PdO7,1.0884999999999998
Zn(N3O8)2,1.0885
Li2V(PO4)2,1.0885
Li24Mn5Cr7O36,1.0885
LiCo(WO4)2,1.0885000000000002
LiMnP2(HO4)2,1.0886
MoSe2Cl4O,1.0886
LiVPCO7,1.0886
LiFe2(PO4)2,1.0886000000000002
Dy2TeO2,1.0886000000000005
Fe2SiO4,1.0886000000000005
Ba2LiY2(Fe2O5)2,1.0886999999999998
LiTi3V(PO4)6,1.0887
LuRhO3,1.0887000000000002
Sm(ErS2)3,1.0887000000000002
HfMg6BO8,1.0888999999999998
Sb4S7N2,1.0889
Na2O,1.0889
Ga12OF36,1.0889
LiCoSiO4,1.0889000000000002
MgPO4,1.089
ZnFe(GeO3)2,1.089
LiCoSiO4,1.0892
MgV6O5F19,1.0892
NaFe2(MoO4)3,1.0892000000000002
ScMo3O8,1.0892000000000004
Li5Fe2P2(CO7)2,1.0893000000000002
Li2V3SnO8,1.0893000000000002
Li4V3P8O29,1.0894
Te6Mo2W,1.0894
GaMoN3,1.0894
LiTiFe5O8,1.0894000000000004
Ag2C4I3N,1.0895
Er2CdS4,1.0895
Li5Cr4O8,1.0896
Cs2NaGaH6,1.0896
Te6RhCl3,1.0896
Ba4SiP4,1.0896000000000003
CsSbN2,1.0896000000000003
MgV12Zn6O24,1.0896000000000003
Ni(WO4)2,1.0897
RbNaMg6O7,1.0897
Li2V(PO4)2,1.0897
Li24Ti11CrO36,1.0898
MnFe4(BiO3)5,1.0898000000000003
Na2Cd2Fe(PO4)3,1.0899
LiAgO,1.0899
LiV6O7F5,1.09
TlPbF7,1.0900999999999998
Sr4LiMn2Cu3(SO)4,1.0902000000000005
Li2Mn3SbO8,1.0902000000000005
LiVSiO4,1.0902999999999992
Li9Mn2Co5O16,1.0903
LiCoSiO4,1.0903999999999998
Li4Fe3Sn3(TeO8)2,1.0903999999999998
Rb2CaNb2(TeO6)2,1.0904999999999996
MoCl6,1.0905
BaIn2O4,1.0905999999999998
Ba3Cr2O8,1.0905999999999998
Ca2Fe2(SiO3)5,1.0906000000000002
Ba3As14,1.0907
LiCrPO4,1.0907
Te2MoW3(Se2S)2,1.0907
Cs4InSbCl12,1.0907
NaV2O4,1.0908000000000002
BaHfMg6O8,1.0908000000000009
LiCoSiO4,1.0909
FeTe3BrO7,1.0909
LiCoP2O7,1.0909
Zn3P6H30(N3O13)2,1.0909
RbMgMoO3,1.0910000000000002
LiCoSiO4,1.0911
Ce(TeO3)2,1.0911
Li4Fe2(PO4)3,1.0911999999999995
V3(O2F)2,1.0911999999999995
K3SnTe3,1.0912
LiCoSiO4,1.0912
Na5La2SiGe2P5O24,1.0913000000000002
CsLaMg30O32,1.0913999999999993
Sr8MgMn6O20,1.0913999999999997
V3MoO6,1.0915
TeP2(N2O7)2,1.0915
LiV2P2O9,1.0916
Li5V3P8O29,1.0917
Hf3N4,1.0917000000000003
Li5Cr2Fe3(PO4)6,1.0918
Mg(ScSe2)2,1.0918
LiV(PO4)2,1.0918
Li7Co(O2F)2,1.0918
K2FeAuF6,1.0919
Sr(Li2P)2,1.092
LiCoSiO4,1.092
Li4MnCo2O7,1.0920999999999998
Tl3Mo4(P2O11)2,1.0921000000000003
Na6Ti4In4Si5S7O48,1.0921999999999998
CaMo5O8,1.0922
Sr4Fe6O13,1.0922
KAuO2,1.0922999999999998
Y3Mg2CrS8,1.0922999999999998
Cd2GeO4,1.0923000000000005
Ba2NF,1.0924
Te2Mo3W(SeS2)2,1.0926
La6B(NO2)3,1.0926
LiVFeP2(HO5)2,1.0926
Li7Mn5O12,1.0926999999999998
Li2TiV3O8,1.0926999999999998
KV6O14,1.0927
KSrZrBiO6,1.0927000000000002
TeMoWSe2S,1.0927000000000002
Li4Mn3OF11,1.0928
LiVFeP2(HO5)2,1.0928000000000002
H18Se3(NO3)4,1.0929
MgV4O10,1.0929
Li3V3P8O29,1.0929
SnPbS3,1.0929000000000002
HfMg6ZnO8,1.0930000000000009
Tb2Pb2O7,1.0930999999999995
SrS3,1.0930999999999995
Cr(FeO2)3,1.0932000000000002
Li7Mn2(CoO4)3,1.0933000000000002
LiV2(PO4)3,1.0933000000000002
Si2Sn2H41C16O3,1.0935
Li2V(PO4)2,1.0935
Li3V8O16,1.0935
Li2VO2F,1.0936
Re(H3C)6,1.0936
Pd(Se3Br)2,1.0937
AgAsBr4,1.0937
MgMn2Te2(MoO6)2,1.0937999999999994
BaWN3,1.0938
MgV4O5F7,1.0939
Sc3InP4,1.0939
SrPrGdNiO6,1.0940999999999996
Zn(MoO2)2,1.0941
K2CuH14C4(N3O4)2,1.0941999999999998
MoCl6,1.0941999999999998
Li4Ti3Co3(TeO8)2,1.0941999999999998
Mg30CoBO32,1.0942999999999996
LiNd(C2O5)2,1.0943
KHo2Cu3Se5,1.0943
Sr2TaAlO6,1.0943
K4Rb2Co2O5,1.0943000000000005
CsTb2Ag3Se5,1.0943999999999998
Li4V3P8O29,1.0944
Dy4Bi2S9,1.0944000000000005
Mg14NbNiO16,1.0945999999999998
Li4MnCo2O7,1.0945999999999998
NaMgNb3Si3(SO8)3,1.0946000000000002
Na18Ca8Nb16Si21(S5O48)3,1.0947
LiVF4,1.0947
Ca10V5Fe15(BiO24)2,1.0947
Mg14MnCrO16,1.094799999999999
Li7Mn2(CoO4)3,1.0948000000000002
CaMoO3,1.0948000000000002
BaLaCuS3,1.0948000000000002
LiNi(CO3)2,1.0949
Ba2NdMoO6,1.0952000000000002
Li3V2P4(HO8)2,1.0953999999999997
Li3V4O8,1.0954000000000006
Mg(SbO2)2,1.0955000000000004
Pm2MgSe4,1.0956
Ca2VFe4BiO12,1.0957
SnGeN2,1.0957
V3(O2F)2,1.0958
Mn5OF11,1.0959
CaAsO7,1.096
Na15Y2C9SClO30F,1.0961
Li9Mn2Co5O16,1.0961
Rb3Bi2S2(ClO2)5,1.0961
Sm2MgSe4,1.0961000000000003
BaZnNiF7,1.0963
NaBiO3,1.0963999999999998
NaMgFe5O8,1.0964
LuCu(WO4)2,1.0964999999999998
MgMn2P2(O4F)2,1.0965999999999998
Li2Cr(Si2O5)3,1.0966
Li5Ti2Fe3O10,1.0966999999999998
Rb2Cd2O3,1.0967
Th4P5O23,1.0967000000000002
Mg6SiSnO8,1.0967000000000002
Li4CuF5,1.0967000000000002
LiTiV2O6,1.0968
MgScMo3O8,1.0968999999999998
Mn2Si4O11,1.0968999999999998
Sb8Cl27F13,1.0969
AgMoH4S4N,1.0969999999999998
KTlCl3,1.097
Li2PdO3,1.0970000000000004
LiVCrP2(O4F)2,1.0971
LiMnOF2,1.0971
LiMnF5,1.0971999999999995
AlO2,1.0972
H8Pd(NCl3)2,1.0972
Sr2MgFeMoO6,1.0972
Cs3CoI4NO3,1.0972000000000002
TeW2Se3,1.0972999999999995
LaNO4,1.0973000000000002
YbHfF7,1.0973000000000002
Ba10MgMn6(O12F)2,1.0974
CaMg6AlO8,1.0974000000000004
InSnBr3,1.0975
K6MgV2(SO3)2,1.0975
LiV2(CO4)2,1.0976
V9O22,1.0977
Li4V5Cr3O16,1.0979
Zn(SbO3)2,1.0979999999999994
Li2CoBO4,1.098
La3Mn8BiO20,1.098
Ca3As4W3O16,1.0980000000000003
MnZnAsO5,1.0981999999999998
Mg6BiBO8,1.0982000000000005
Yb2GeSe4,1.0983
LiV2(PO4)3,1.0983
Ca3YMn3B4O15,1.0985
Y4Mg(BiO3)4,1.0985000000000005
Li4MnCo2O7,1.0985999999999998
TiZnMo(PO4)3,1.0987
MgMn2(OF)2,1.0987
La2ZnNiO6,1.0987999999999998
Pr6Mn(SiS7)2,1.0988999999999995
Nd2MgSe4,1.0989
La2CdSe4,1.0990000000000002
Fe3PH6PbSO14,1.0991
Mg2W2O5,1.0991
Li2V2OF5,1.0991000000000004
Tl4O3,1.0991999999999995
Na2Mg4Ta4Si3(S3O16)3,1.0992
Li5CoO4,1.0993
AlCr3O6,1.0993999999999993
PdPbF4,1.0993999999999997
MgCr4(PbO4)4,1.0994000000000002
LiCrP2O7,1.0994999999999997
Ca(NdTe2)2,1.0995999999999997
CaMg6NbO8,1.0995999999999997
MgTiCo(PO4)3,1.0996
MgCo2Te2(MoO6)2,1.0996
K2MnCl6,1.0996
Ag5Au3S4,1.0997
LiVCr(P2O7)2,1.0998
VFe(PO4)2,1.0999
Gd4PdO7,1.0999
Li2Fe3(PO4)3,1.0999
Ca3Y2N4,1.0999999999999996
TeMoWSe2S,1.1001
Ti2Cr3O12,1.1001
Tb2MgSe4,1.1001000000000003
Li2NbV3O8,1.1001999999999996
Li24Mn7Cr5O36,1.1001999999999998
Li6V3P8O29,1.1004
Li5V3P8O29,1.1005
Li2FeBO4,1.1006
Cs8Mg(Sn2O3)4,1.1006
CaFe3Si2HO9,1.1006999999999998
TeMoWSeS2,1.1008
Yb2I2O,1.1008
MgV2(O2F)2,1.1009
Cd3(InSe3)2,1.1009
Na2AgIrF6,1.1009
CaMnBiO5,1.1009
Na4ZnSi3Sn3(SO8)3,1.101
KLa(SnO3)2,1.101
MgTi2(Bi2O5)2,1.1012
Na15Nb5Zn7Si9(SO8)9,1.1012
Cs3Tl2Br9,1.1012
Ag16HgAs4S15,1.1012
Mg(SnO2)2,1.1012000000000004
MgFePbO3,1.1012999999999993
NaMgCo2(MoO5)2,1.1013
NaHfMg6O7,1.1014
YVO3,1.1014
LaMnO3,1.1014
LiCaAs,1.1014999999999997
RbMg6BO7,1.1015999999999997
Li5V3P8O29,1.1016
Li(CoO2)4,1.1016
Tm4MgS7,1.1018999999999997
Li7Mn2(CoO4)3,1.1019
HoAgTe2,1.1020000000000003
InSbSe3,1.1020000000000003
SrLa3Mn2Cr2O12,1.1021
Mg30CoBiO32,1.1021
Mg(Fe2O3)2,1.1021000000000003
LiVPO5,1.1021999999999998
Li2Cr4Si4O13,1.1021999999999998
Na2Y6Nb2Si3(S3O16)3,1.1022
BaMg2N2,1.1022000000000003
Mg14CuNiO16,1.1022000000000007
Li4VCo3O8,1.1025
Fe6O5F7,1.1025000000000005
Li2CoBO4,1.1026
In2AgS3Cl,1.1027
Rb2Mg(FeO2)2,1.1027000000000002
Li2CoBO4,1.1027999999999998
CrPO5,1.1028
K3GeTe3,1.1028
Na2SnS3O7,1.1028000000000002
V2O3,1.1029
Sr2Ge2Se5,1.1029
Ti13(Fe5O14)3,1.1029000000000004
Ba2SiTe4,1.1029000000000004
CaSn3O7,1.1030000000000006
BaBiO3,1.1031000000000004
Ca(PrTe2)2,1.1032000000000002
MgMo3O7,1.1033000000000004
Li3VCrP2(HO5)2,1.1033000000000004
MgV5CoO12,1.1033999999999995
Li3V2P5O18,1.1034
SrMg14VO16,1.1034999999999997
Sr3Co(CN)3,1.1035
MgFe2(SeO5)2,1.1035
NaMgTi2BiO6,1.1035000000000004
Li4V3Fe3(TeO8)2,1.1035000000000004
ZnFeBO4,1.1035999999999997
CoPO4,1.1037
Li2NiO3,1.1037
LiAlVO4,1.1037000000000003
Sr2MnMoO6,1.1037000000000003
Mn5VO12,1.1038
Al(SeCl)4,1.1038
Mg2Fe2O5,1.1038
Te10Mo3I10,1.1038
Fe5HO8,1.1039
Na3Li3Fe2P2(CO7)2,1.1039999999999996
LaCoO3,1.104
Bi14SO24,1.1041
Ti(C5Cl)4,1.1041
K2GaSb2,1.1041999999999998
Sr3MgV2O7,1.1042
Li6V3P8O29,1.1042
Mg30AlCuO32,1.1042000000000003
LuBiTe3,1.1042999999999994
Li3V4O8,1.1042999999999998
LiV2(OF)3,1.1042999999999998
GaAsO4,1.1042999999999998
Li32Ti3Cr13O48,1.1043000000000005
K3H3S2(O4F)2,1.1044
CsHC(NO)2,1.1045
K3Sb2Au3,1.1046
Li4MnCo2O7,1.1046
LiMg6MnO8,1.1046
MgAl4(HO)12,1.1046000000000005
C,1.1046999999999998
Li2MnSnS4,1.1046999999999998
MgVSiO5,1.1046999999999998
TiBi2(O2F)2,1.1048999999999998
MgCo3NiO8,1.1048999999999998
MgV4O8,1.1048999999999998
CsCuSe4,1.1049
AlPO4,1.1049000000000002
Fe3(P2O7)2,1.1050999999999995
Li3Mn2Fe(BO3)4,1.1051
Ba(TeP2)2,1.1052
MgV4O7F5,1.1052000000000002
CsAgO2,1.1055
Li4TiMn(WO6)2,1.1055
Li4Nb3Fe5O16,1.1055
LuCuPbSe3,1.1055
CuH18PdC4N4O11,1.1055
AgSb3PbS6,1.1056
Li4MnCo2O7,1.1056
SrC3O7,1.1056
YMn2O4,1.1057
Ba7TiN6,1.1057
Li2VCl4,1.1057999999999997
Li6V3P8O29,1.1059
Mg2TaSbO6,1.1060999999999996
Ba2Cu(PO3)6,1.1062
ZrTe2Br5,1.1062
Cr2Cu3(OF)12,1.1062999999999998
Cd7P10,1.1063999999999998
Na2Mn2Fe(PO4)3,1.1065
LiCoP2O7,1.1065
MoWS4,1.1065
Rb5(CoO2)2,1.1065999999999998
Ba(HCl)2,1.1066
Ba10Br4N5Cl,1.1066000000000005
Yb(ErSe2)2,1.1066999999999998
CrSb3Pb4O13,1.1067
TeMoWSeS2,1.1067
Ca3Mn2(SiO4)3,1.1067999999999998
Sm2MnTe5Cl2O13,1.1067999999999998
HgNCl,1.1068
Mg2AlCr3S8,1.1069000000000004
Li7Fe8(BO3)8,1.1069999999999998
Li3Fe3SiO8,1.1069999999999998
Ti7(Fe3O8)3,1.1070000000000002
Zn4CdSe4S,1.1071
Ti6Fe8O21,1.1071999999999995
Mg2Bi,1.1072000000000002
AlAgSnSe4,1.1072000000000002
MoW3S8,1.1073
Be2ZnPt,1.1075
Li4VCo3(PO4)4,1.1076000000000006
Ba2NCl,1.1077
LuCuSe2,1.1077000000000004
Y2MgSe4,1.1077000000000004
Mg14TiBO16,1.1077000000000004
YTi3Se2ClO8,1.1077999999999997
Li7V4O11F,1.1079
Tb6Ge3Se14,1.1079
RbTeAu,1.1079
Li24Mn7Cr5O36,1.1079
Sr2LiV2(Si2O7)2,1.1079999999999997
LiV2(PO4)3,1.108
LiV4OF11,1.1081
Na2CrF4,1.1081000000000003
Li2Cu(PO3)3,1.1081000000000003
Li3MnCoNiO6,1.1081000000000003
Sb26O53,1.1082
GdIn2Cl5,1.1082
Al6CuP4(H4O7)4,1.1084
Te2As(SeF2)3,1.1084
MgFe4(OF)4,1.1084
LaMgFeSnO6,1.1086
LiV2P4(HO8)2,1.1086
TiSnO3,1.1086
Ba3Na7Ti3Nb7O30,1.1087000000000002
Tb3Te3N,1.1087999999999996
Li6V3P8O29,1.1088
CaAl2H4Pb2(O2F3)2,1.1089000000000002
Ti9Fe11O30,1.1090999999999998
K2Hg3Se4,1.1091
SbI3(BrCl3)2,1.1091
MnH12C2NCl3O2,1.1092
Ba3(InP2)2,1.1092
Li4Ti3V2(Fe2O9)2,1.1092999999999995
GeNCl3,1.1093
K2LiMn2O4,1.1093000000000002
Ti3Fe5O12,1.1093000000000002
K5BaNbAs4,1.1094
MnHO2,1.1096
Mg(WO3)2,1.1096
LiFe4(BO3)4,1.1096
Ca(Fe2O3)4,1.1096000000000004
Li7Mn2(CoO4)3,1.1097
Li2TiFeO4,1.1097
Te2MoWSeS,1.1098
Li5Cr4O8,1.1098999999999997
Li4Mn2Fe3Sb(PO4)6,1.1098999999999997
LiV2(PO4)3,1.1099
CsTaI6,1.1099
Ba2MgMn2(P2O7)2,1.1099000000000006
HoCuSe2,1.1100000000000003
Te4Mo3WS4,1.1101
Ca3(AlAs2)2,1.1101
MnFe2(PO4)3,1.1102
Li3Fe4(BO3)4,1.1102
K2CuSb,1.1104
SbSN2O4F3,1.1105
Ba2InCuO4,1.1107999999999998
Al2HgTe4,1.1108000000000002
Dy2MgSe4,1.1109
Y2CdS4,1.1109000000000002
SbN,1.1109999999999998
Li2VPO4F,1.1109999999999998
Li2V3CoO8,1.1109999999999998
LiMnOF2,1.1110000000000002
PH8IN4,1.1111
RbInTe2,1.1111
Na2MgMn4O8,1.1111000000000002
Li9Mn2Co5O16,1.1111999999999995
Li4V3OF11,1.1112
Li4Ti2Fe5O12,1.1112000000000002
Mg14NbBiO16,1.1112000000000002
CN2,1.1113
Li2Co3BiO8,1.1113
MgNb2(SCl)4,1.1115999999999997
Te2MoWSeS,1.1117
Te2MoW3(Se2S)2,1.1117
Li5V3P8O29,1.1117
Li5Mn2Fe3O10,1.1117000000000004
LiTiFe2O5,1.1117999999999997
Yb(TmSe2)2,1.1118
Fe3Se3O10,1.1118
Li3V3(FeO5)2,1.112
Lu2Mn2O7,1.1121
Sr2YAlSn2O7,1.1121
LiFe2(CO3)3,1.1123
Sr3TaN3,1.1123000000000005
MgTe2(WO6)2,1.1124
Li9Mn2Co5O16,1.1124
MgMn2O3,1.1124999999999998
Li4V3Fe3(SbO8)2,1.1125000000000005
Ba2Mn(AsO4)2,1.1126
Sr11InSb9,1.1126000000000005
Ca(MoO2)2,1.1126000000000005
Ca(SbO2)2,1.1126999999999994
MgZn2Te2(MoO6)2,1.1126999999999998
MgAg6Mo10O33,1.1127000000000002
Li9Mn2Co5O16,1.1128999999999998
Li10Co4O9,1.1130000000000002
Li5Fe8(BO3)8,1.1130000000000002
K3AsSe4,1.1130999999999998
MgV5O12,1.1131
Na2Ni3O7,1.1134000000000002
Pr2VFeO6,1.1134999999999995
HfAg2S3,1.1134999999999995
Li8NiO5F,1.1136
Li5Fe8(BO3)8,1.1136999999999997
CsMnFeF6,1.1137
MnVPbO5,1.1138
Li(CoO2)3,1.1138
Li7Mn2(CoO4)3,1.114
Li3Fe8(BO3)8,1.114
Ba7Na3Ti7Nb3O30,1.114
Cr2Ag2O7,1.1141
Ba2MgNbInO6,1.1141
Si,1.1141000000000003
Ti5Fe7O18,1.1141999999999994
ErSI,1.1142
Na8MgTi2O8,1.1142
Sm2TeMo6(H5O9)4,1.1144
Tb2MgSe4,1.1144000000000005
ThSO,1.1144999999999996
V2Cr3Sb3O16,1.1144999999999996
Li24Mn7Cr5O36,1.1144999999999998
Mg2Nb2TeO8,1.1145
MgMn2(CO3)4,1.1145
TmBiTe3,1.1145000000000005
Sr2MgZrCrO6,1.1145999999999998
TaI5,1.1146
Li9Mn2Co5O16,1.1147
LiFe4(BO3)4,1.1147
TmCu(WO4)2,1.1147
Mg14VSnO16,1.114799999999999
In5S5Br,1.1148999999999996
LiFe4(BO3)4,1.1148999999999998
LiFe2(BO3)2,1.1149
KY(NbCl3)6,1.1149
Mg2CrGa3S8,1.1149999999999998
NaSrSbWO6,1.1150000000000002
KMg6CoO8,1.1151
MgCo2(BiO4)2,1.1151999999999995
Li4V5(FeO6)2,1.1151999999999995
Li5V3P8O29,1.1152
NaMn4(AsO4)3,1.1152000000000002
LiFe2(BO3)2,1.1152000000000002
CeMo5O8,1.1152000000000006
LiVGaO4,1.1153
Li3Fe8(BO3)8,1.1153
Li5Fe8(BO3)8,1.1154000000000002
K4BaTi6S20O,1.1155
Li3Fe4(BO3)4,1.1155
K2AlCuF6,1.1155
Li5Fe8(BO3)8,1.1155000000000004
Na3CoO3,1.1156
FePO4,1.1156
Li5Fe8(BO3)8,1.1156
BaFe3(PO4)3,1.1157
AsC2(OF3)2,1.1157
Li6V3W3O16,1.1157
Ba2MgMn2(P2O7)2,1.1157000000000004
Li3Fe8(BO3)8,1.1158
Mg3MnTe4,1.1158
Li3VF8,1.1158
KZrMnBiO6,1.1158000000000006
LiVCrP2(HO5)2,1.1159
LiFe2(BO3)2,1.1159
HgN2Cl4O,1.116
Na8MgMn2O8,1.116
LiCo5SbO8,1.1161
Cs3CuTeS9,1.1161
Cs2AgAsBr6,1.1161
Na4CaSi3Sn3(SO8)3,1.1161
LiFe2(BO3)2,1.1161
Np2SO10,1.1161
AlBi2Se2BrCl4,1.1162
NdB5IO11,1.1162999999999998
Bi11(Se4Cl3)3,1.1162999999999998
LiFe4(BO3)4,1.1165999999999998
LiFe2(BO3)2,1.1165999999999998
SbPC3Cl5O,1.1166
BaLiHfBiO6,1.1166
NaMgCr2In(H2O5)2,1.1166
Li2VO2F,1.1166
Ti4(Fe2O5)3,1.1166000000000005
K2V2O5,1.1167999999999998
VCdCuO4,1.1168
SrTaNO2,1.1168000000000005
Na3PSe4,1.1168999999999998
LaN,1.1169000000000002
K2PdS2,1.117
LiCrP2O7,1.117
CoSb2Br2O3,1.117
Li3Fe8(BO3)8,1.1171999999999995
K5C4Br,1.1172
Ho2CdS4,1.1172000000000002
Mg2Mn3O8,1.1172000000000002
LaTlGeSe4,1.1172000000000004
K(SbSe2)2,1.1172999999999995
Cr4Si4O13,1.1174000000000004
Li4Mn2TeWO12,1.1174999999999995
Li2VFeO4,1.1175000000000002
V2Ag(PO5)2,1.1175000000000002
Mg6AlVO8,1.1175000000000015
Te6MoW2,1.1176
TcP2H18(C3Br)2,1.1176
Fe5P3O13,1.1176999999999997
Li9Mn2Co5O16,1.1177
Li6V3P8O29,1.1178
ErAgTe2,1.1178000000000003
Cu2SiS3,1.1178999999999997
Li9Mn2Co5O16,1.1179
LiFe4(BO3)4,1.1179
K2Nb3H11C5(Cl3O4)2,1.118
Li2TiCr3O8,1.118
Y3CuGeSe7,1.1180000000000003
Rb4CO4,1.1181
YbZrF7,1.1181
Na5MgSbO5,1.1182
La2ThSe5,1.1182
Na6Mg2Ti6Si5S7O48,1.1182999999999998
Li3V4SnO12,1.1183000000000003
Rb2(NbBr3)3,1.1183999999999998
Li32Ti3Cr13O48,1.1183999999999998
Cs2CuBiCl6,1.1183999999999998
Li2Cr4O13,1.1184
MgMo2(PO5)2,1.1184000000000005
TbSI,1.1185999999999998
LiAgF4,1.1185999999999998
Li2V3O3F5,1.1186
Li5V3P8O29,1.1186
Mg14TiSnO16,1.1187000000000005
SrLiNdCoO4,1.1187999999999998
TmAgTe2,1.1188000000000002
CsKPt6(S3O14)2,1.1189
LiV2OF5,1.1189000000000002
Li24Mn7Cr5O36,1.119
PrMo5O8,1.1190000000000009
Fe5Co(PO4)6,1.1190999999999998
Rb2Nb2P2S11,1.1190999999999998
Rb(SbSe2)2,1.1191
SbOsS,1.1191999999999993
MgMnZn2WO6,1.1192000000000002
MgBe2Pt,1.1192000000000002
LiV3O8,1.1192000000000002
MgFe6(OF)6,1.1192999999999995
CaTiBi(PO4)3,1.1193
Ca2FeMoO6,1.1193000000000004
TbCuSe2,1.1193999999999995
Li5V3P8O29,1.1195
MgTi2Mn4O12,1.1195
LiFe4(BO3)4,1.1195
La3BeGaS7,1.1195000000000004
Li2VO2F,1.1196000000000002
H12Pd(I2N)4,1.1197
Rb3LiErV2O8,1.1197000000000004
Mg6VSnO8,1.1197000000000008
Dy3Te3N,1.1197999999999997
Li5V3P8O29,1.1198
Ba6Br2N3Cl,1.1198
ScRhO3,1.1198999999999997
Fe(CO3)2,1.1199
Li2CrO3,1.12
RuClF8,1.12
Na2CuP4H18N4O15,1.1201
Na10Ca4Nb4Si7S5O48,1.1202
WBr4O,1.1204
Fe3Pb4ClO8,1.1204999999999998
Fe31Si5O48,1.1204999999999998
KEu2Cl5,1.1205000000000005
Hg4As2O7,1.1206
Li3Cr2Fe3O10,1.1206
Mg11(Fe15O28)2,1.1207000000000005
Li6Mn3CoO10,1.1207000000000005
Rb3Mo4(P2O11)2,1.1207999999999998
CaSnS3,1.1208
Na2MgTi3Si2(SO6)4,1.1208999999999998
Li4V3P8O29,1.1209
YMnFeO5,1.1209000000000002
Na3V3H6O7,1.1209999999999998
CsMgV2O5,1.1210000000000002
TmCuPbSe3,1.1212
La2MgVZnO6,1.1212
NaZr2SN2Cl,1.1212000000000004
KSbO3,1.1212999999999995
Li2CrO2,1.1213
Sr2UFeO6,1.1213999999999995
TeAuI,1.1214
Cd2In3Ag3Te8,1.1214
K4VP2S9,1.1214000000000002
Ba2MgCrMoO6,1.1214999999999995
K2TiS3,1.1215
Gd5AgS8,1.1215000000000002
LiYPd2,1.1215000000000002
Mn13Al4Si2(SbO14)2,1.1216
Sr8MgP4(IO4)4,1.1216999999999997
Gd3Se3N,1.1217
Ba3Cr2O8,1.1218
K2Re3C2Se5N2,1.1218
Mg6NbCdO8,1.1218000000000004
Li2TiFeO4,1.1218000000000004
KMgNi2H3(SeO5)2,1.1218000000000004
Cd4Si(SeS)3,1.1219
Mo3As2O15,1.1219
Sr2MgCuMoO6,1.1219
Y2Si3(WO4)3,1.122
Li2VO2F,1.122
AlSb2(SeCl2)2,1.122
Cs(SbSe2)2,1.1220000000000003
Co2H21S3(NO2)6,1.1221
MgV2MoO8,1.1221
Ni(H2N)2,1.1222
Ho8Mg(Ge2O7)4,1.1222
Li6VFe5O12,1.1222000000000003
Zn(InS2)2,1.1222000000000003
TmCuPbSe3,1.1223
V7C2(NO8)2,1.1224
Zn3Ni4(SbO6)2,1.1224000000000007
Ba2VBiO6,1.1225
Li9Mn2Co5O16,1.1225
NaMg14CO16,1.1225000000000005
K2FeH12(SO7)2,1.1225999999999998
CaSn2P2O9,1.1226000000000005
SrLuCuSe3,1.1226999999999996
K2BaLiCo(NO2)6,1.1227
Ca2Ta2VO8,1.1227
HoMg(MoO3)2,1.1227
Si6O13,1.123
Os10C23S2O23,1.1232
LiMn(PO3)4,1.1233
Na3Sr3AlP4,1.1233
CeSe2,1.1233
UBi4(AsO8)2,1.1233
Li4FeP2O9,1.1233000000000002
TiCo3O8,1.1234
SbOsSe,1.123400000000001
MoW2(SeS2)2,1.1235000000000002
Ca2Pt3O8,1.1236000000000002
MgMn8(SO3)8,1.1236000000000006
Rb2Mg(FeO2)2,1.1237
Sm2InCuS5,1.1237000000000004
Mn4Bi3NO15,1.1238999999999997
Bi4PbS7,1.1239
TaGaN2,1.1239999999999997
CeSe2,1.124
MgTiZn(BiO3)2,1.124
Cr3(P2O7)2,1.1240000000000006
La3Zr2Cu7O12,1.1240000000000006
LiZn2(FeO2)4,1.1241
Cs3SnTe3,1.1241
Mg6NbSnO8,1.1241000000000003
Li4V3P8O29,1.1242
LiVSO4F3,1.1242
Gd10S14O,1.1242
Al2Zn2S5,1.1242
Li3VFe3O8,1.1242
Li7Mn2(CoO4)3,1.1243000000000003
Y3Te3N,1.1243999999999996
Na3Sb5O14,1.1243999999999996
Li4TiCo5O12,1.1244
PrBi2ClO4,1.1244
Li6Mn2OF11,1.1246
Na14Ca5Si6Ge3(SO8)6,1.1246999999999998
Cr(WO4)2,1.1247
LiV(PO4)2,1.1247
Na6Zn2Si3Ge2(SO8)3,1.1248
K2AgSbBr6,1.1248
Li4V3P8O29,1.1248
MgFe12(OF)12,1.125
Na4Mg(CoO3)2,1.125
Na2Ga4Si3Ge4(S3O16)3,1.125
Te6IrCl3,1.1250999999999998
Mo2P3O11,1.1251
Te6MoW3Se2,1.1251000000000002
K2VCuSe4,1.1253
MgFe7(Ni3O8)2,1.1254
SmFeGe2O7,1.1254
TiFe11O16,1.1254999999999995
Sm4MgV4O12,1.1255999999999995
LiVOF2,1.1256
Na4Ti3ZnSi3(SO8)3,1.1257999999999997
Y2(OF)3,1.1258
Ba10IBr4N5,1.1258999999999997
PrTl(SO5)2,1.1259
YWN3,1.1259
KAsOF5,1.1259
La6Mn(SiS7)2,1.1259000000000006
CoO2,1.126
B40H51F3,1.126
K2Th(CuS2)2,1.1260000000000003
Cs2ICl6F,1.1261
Li3Fe(PO4)2,1.1261
MgV3CoSn2(PO4)6,1.1261
Tb3CuGeSe7,1.1262000000000003
TiSn9O20,1.1262999999999996
ZnGa3N3O,1.1263999999999998
Ba2DyInSe5,1.1264000000000003
Li2Ti2V3O10,1.1264999999999996
Li4CrGa3O8,1.1265999999999998
LaCrO4,1.1265999999999998
SiO2,1.1266
KLaMnWO6,1.1266000000000007
Mn2OF2,1.1267
LiMo2PO8,1.1267999999999998