formula,band_gap (MP)
AlNi(WO4)2,1.9588
Sr2V3HO9,1.9589
Na2ScGe(PO4)3,1.9589
Ca3Ti(FeO4)2,1.9589
Mn(HO)2,1.9589
ZnCr2(PO4)2,1.9589000000000003
Na14Mg2Si9Ge6(SO16)3,1.959
InSnP(SO6)2,1.959
LiMnBO3,1.9592
Cr2PBrO4,1.9593
Na2Ca17V2(PO4)14,1.9593
CaGa4(WO6)2,1.9593
CoH7C3NO6,1.9593
LiVP2O7,1.9593
MgNiO2,1.9593000000000005
Tm2SeO2,1.9593000000000005
Te2MoW3(Se2S)2,1.9594
LiVF5,1.9594
TmMgSb(PbO3)2,1.9594000000000005
V2ZnCoO7,1.9595
KAlTe2,1.9596000000000005
BaSmCrSnO6,1.9597
LiYS2,1.9597
MgNiF5,1.9597
Ba16Ca2HC12N25O4,1.9597
NaLa2Ti2P3(SO8)3,1.9598
MgCoAs2O7,1.9598
BiXeF9,1.9598
Li4Cr3FeO8,1.9598000000000004
VF4,1.9599
AgH2CS2N,1.9599
CoH4(CO3)2,1.96
K5Na3Ta7NbO24,1.96
Na5TiGa3Si3(SO8)3,1.9601
MgZn2(CoO3)2,1.9602
Li4Cr3FeO8,1.9602000000000004
Ti2CdO6,1.9603
Na2Hf2O5,1.9603
ScIO,1.9603
Ba2BiWO6,1.9603999999999997
Na3MgCo2SbO6,1.9604000000000004
BaH3IO6,1.9605
LiV(CO3)2,1.9606
CoH8(ClO2)2,1.9607
NaSc2Ge2P3(SO8)3,1.9607
SiC,1.960799999999999
VP3(HO5)2,1.9608
K2TlRhF6,1.9609
Li2FeOF3,1.9609
LiV(PO4)2,1.961
K2S2NO7,1.961
Ag2Mo(I2O7)2,1.9611
Sr2MgCoO4,1.9611
LiNiOF,1.9612000000000005
Ho2MgAg2(WO4)4,1.9614000000000005
Ag2W2O7,1.9614000000000005
V3P4O15,1.9616
LiNbCoO4,1.9616
FeGeO3,1.9617
Na4CO4,1.9617
Li10Co(SiO5)2,1.9617
VOF3,1.9617
Ca3In2O6,1.9618
YH16C4N9O16,1.9619
Ce2ThO6,1.9619
Rb2UC2SO11,1.9619
LiFeCO4,1.962
Cs3P11(H3N)3,1.9621
BaMg6AlO8,1.9621000000000004
Ba2MgMo4(Se2O11)2,1.9622
Li4Cr3FeO8,1.9622000000000008
CeZr2O6,1.9623
Gd3SOF5,1.9623
La2C(NO)2,1.9623000000000008
K2Na3InO4,1.9624
Li4Cr3FeO8,1.9624
BaAuCl,1.9626
Li4Cr3FeO8,1.9626
KCBr(NO2)2,1.9626
Li3V(SiO3)3,1.9627
LiVSiO4,1.9627000000000003
Mg3(HO3)2,1.9628
Na2UI4O15,1.9628
Sr3GdRhO6,1.9628000000000003
CsPb2I5,1.9629
Na5In3Si3Ge(SO8)3,1.9629
UTl2(TeO4)2,1.963
Zn2Ni11O13,1.963
Li10FeCo9O20,1.9631
LiFeAsO4,1.9632
Rb2S,1.9632
Sb5IO7,1.9632
Na6Ca7Ti(SO4)12,1.9633
LaTaBi2O7,1.9634
Ba6Dy2Al4O15,1.9634
LuMoBrO4,1.9634
Nd4Au2O9,1.9634
MnVH4O2F5,1.9634
Na5GdO4,1.9635
KSrNdSeO6,1.9635
LiMnVO4,1.9637
TaTeBr9,1.9637
MoP2O7,1.9637
K4CO4,1.9637
Co2AsHO5,1.9639
CeTh9O20,1.9639999999999995
Na3Sr4Nd3Ti10O30,1.964
TeMoWS3,1.9641000000000008
Sr2UCdO6,1.9643
Na10Y4Nb4Si9(SO16)3,1.9643
La2MgS4,1.9643999999999997
UCdO4,1.9644
KTlF3,1.9647
K2TbAuCl6,1.9648
Li2AgF3,1.9648
Na3Mn2BO6,1.9649
Gd2CrSbO7,1.9649
WSCl4,1.965
NdCu(MoO4)2,1.9651
NaMgSnP(SO6)2,1.9651
La5(SiN3)3,1.9651999999999996
Na5Li3(TiS4)2,1.9652
LiPWO5,1.9652000000000005
NdNb3O9,1.9653
LiV4(PO4)3,1.9653
Ba2H6Os,1.9655
BaSr4U3O14,1.9657
BaBr2O11,1.9657
K3Ni(NO2)5,1.9658
NbBr3O,1.9659
Ho2MgS4,1.9659
Li2Ti3CoO8,1.966
La4MnS6O,1.9661
HgINO3,1.9661
AlPH8(CCl)3,1.9662
Na9Ca4Nb2(PO4)9,1.9662
Fe10OF19,1.9662
NaUVO6,1.9662
La3SiAgS7,1.9663000000000004
Te3C2S2(OF)6,1.9664
CsPrCdSe3,1.9664
KCa2Nb3O10,1.9665
HgH2SO5,1.9665
Pb4SeBr6,1.9666
Ca3Fe2(WO6)2,1.9666
CaVF4,1.9666
NaSr4(BN2)3,1.9666
Li5Cu(PO4)2,1.9666
Na2Ta5In3Si6(SO8)6,1.9667
Li4V2Si(PO6)2,1.9667000000000003
Li3P11(H3N)17,1.9668
Li2VPCO7,1.9669
Sr2MgCuWO6,1.9671
Ba6Y(ReO6)3,1.9671
WBrCl3O,1.9672
KCrF3,1.9672000000000005
MgSb2(O2F)2,1.9672000000000005
SrCr9Ga3O19,1.9673
Na6La4Nb4Si7S5O48,1.9673
Na14La6Nb2Si9(SO16)3,1.9673000000000005
KMnIO6,1.9674
AsS,1.9674000000000005
Cs3Nd(PS4)2,1.9675
SbCNCl6,1.9675
Y2TeO6,1.9675
Zn2AsHO5,1.9675
NaTi2Sn2P5SO24,1.9676
La2GeS5,1.9676
K2NaNb3O9,1.9676
Li4Cr3FeO8,1.9676000000000005
YAg(WO4)2,1.9677
FeH16C4S4(N4Cl)2,1.9677
YbI2O,1.9677
MgSb2(O2F)2,1.968
KCrF3,1.968
Na4MgV2O6,1.9681
Rb2S,1.9681
HoInO3,1.9681
CrPO4,1.9681
Bi(WBr3)3,1.9682
Li3CoPCO7,1.9682
Cs3W2N5,1.9682
LiVPO5,1.9684
HgH16(Br3N2)2,1.9684
K3CuP2S7,1.9684
H13RuC6SN4O8F9,1.9685
MgSe2,1.9685
Ba3ZnSb2O9,1.9685
AgP(OF)2,1.9686
BaSrSmBiO6,1.9687
Li4Cr3FeO8,1.9687
MgV2(OF3)2,1.9687
Mn(AsO2)2,1.9688
H6PbCBr3N,1.9688
NaLa6Ga3S14,1.9689
Te2MoW3(SeS2)2,1.9689
As2Pb14Cl4O17,1.9689
Si(PbS2)2,1.9690000000000003
SiC,1.9692999999999987
MgCr2O4,1.9693
KSnO2,1.9693
Ba8Ti3Nb4O24,1.9693
NaPHO3,1.9694
LiVP2O7,1.9694
Li19Cr4P8O35F,1.9694000000000005
La4Al6O15,1.9695
LiLa5Ti8O24,1.9695
SiC,1.9695
Na6Zn3Si2Ge(SO6)4,1.9695
LaMgI5,1.9695000000000005
CsNaTe,1.9696
MgInGaO4,1.9697
Ta2MnO6,1.9697
AlNiAg2F7,1.9697
Te2Mo3W(Se2S)2,1.9698
La6Mg(SiS7)2,1.9699
Mg2Al2Se5,1.97
UH16C4(NO3)4,1.9701
Zn2NCl,1.9701
C3N4,1.9701000000000004
BaDyNbSnO6,1.9704
Li2VBO4,1.9704
Ba4CeMn3O12,1.9704
ScTlP2S7,1.9704999999999997
Rb2MoS3O,1.9705
Li2AgF3,1.9705
Cu3MoH24C8S3I3N2O,1.9705
Sr3LaI9,1.9706
Li2Fe3OF6,1.9706
Ru3C10I2O9,1.9706
SiC,1.970600000000001
Mg(InS2)2,1.9707
TiIn2O5,1.9707
Li2VF6,1.9708
Na2Sc4In4SiS11O48,1.9709
MnVBiO5,1.9709000000000003
VZnSe2O7,1.971
H10PtC(N4O)2,1.971
Ta2Mn2O7,1.9710999999999996
VO2F,1.9711
PtPbF6,1.9711
Sb2S19F12,1.9712
K6ZnS4,1.9714
Pr2MgS4,1.9715
Na3AuO2,1.9715
AuBr,1.9716
La3SiN4F,1.9716000000000005
Sr2TbBiO6,1.9717
Na8ZnSi4Ge3(PO12)2,1.9717
Na7CaSi3Ge3(PO8)3,1.9717
PrZrNO2,1.9717
K2Cr4O13,1.9718
Sm2MoO6,1.9718
MgV2ZnO6,1.9718
Er2S3,1.9719
Th2N2O,1.9719000000000009
ZrNF5,1.972
Na14Ti4Ga4Si9(SO16)3,1.9721
V(SeO3)2,1.9721
UTlH(SeO4)2,1.9722
NaScTiSi(SO6)2,1.9722
Sr2YBiO6,1.9723999999999997
NaNb2PO8,1.9724
CsTlBr4,1.9724
Li2CrP2O7,1.9725
LiMnBO3,1.9726
TaBr5,1.9727
Li5MnCr3O8,1.9727000000000008
Li2PWO4F,1.9728
Li2MnF4,1.9728000000000003
La6UO12,1.9728000000000003
K3CrC5N6O,1.9729
SbS7IF6,1.9731
Li2SnH14Se3O7,1.9732
V2CoH4C4(NO3)2,1.9733
Na6MgO4,1.9734
TlCuPS3,1.9735000000000005
K3TaNbCu3S8,1.9736
MgV2(OF3)2,1.9736
Mg3ZrO4,1.9737
Si2H2O3,1.9737000000000005
AsS,1.9738
Te(HO)6,1.9738
KV2Fe(AgO4)2,1.9738
TlIO4,1.9738
SiC,1.9738999999999995
MgMoP2O7,1.9738999999999995
TiFe2O5,1.9740999999999995
Li3Nb(FeO2)4,1.9741
LiDyS2,1.9742
Li12V3CrP4(CO7)4,1.9742
NaSrCeSbO6,1.9744
LiVF4,1.9744
Na2LaTi(PO4)3,1.9744
CaLaFeSbO6,1.9744
Li2Cr3SbO8,1.9744999999999997
Li6Ti2S6O,1.9745
Ca2BiSbO6,1.9746
Li4V2SiGeO10,1.9746
Ba8CaY2U4O24,1.9746
KLa(PSe3)2,1.9746999999999997
YbMoClO4,1.9747
CsMgCoF6,1.9747
KCd4Ga5S12,1.9747
As16S17,1.9747
Li3Mn2OF5,1.9747
PrCu(MoO4)2,1.9748
LiVPO4F,1.9749
LiFe2(BO3)2,1.9749
Rb2NbCuS4,1.9749
Cs2AgAu,1.975
Li2CuPO4,1.9750000000000003
Cs2MoO8,1.9751
Sr2RhF7,1.9751
CsFeO2,1.9752
Hg3(SeF)2,1.9752
Zn2CrWO6,1.9752
Mg14MnNiO16,1.9753
Dy3TaO7,1.9753000000000005
Na4Ti3Zn(PO4)6,1.9754000000000005
VP2H4NO7,1.9755
SiH8C4F3,1.9755000000000005
Rb2NaNb6(PO8)3,1.9757
Li2CeO3,1.9757
V2H12C4S4O15,1.9757
Ca2NF,1.9759
La3AgGeS7,1.9759
VCoH14(O2F)4,1.9759
K5Th(PS4)3,1.976
Si3Pb11O17,1.976
Li3Cr3(PO4)4,1.976
Tl3Cr4AgO14,1.976
AgCO2,1.976
CsFeO2,1.976
LiVF3,1.9761
Na21Mg10Nb2P15(SO24)3,1.9761
Na2USiO6,1.9761
CsI2Br,1.9762
Li8TiS6,1.9762
ZnCr(SiO3)2,1.9763
NbSe2SN2ClF6,1.9763
As2Se2S(NF6)2,1.9764
Mg30MnSiO32,1.9765
AgIO3,1.9765
Sr2DyBiO6,1.9765
Ca5(GeN3)2,1.9765999999999997
NaV3H6(SO7)2,1.9766
Li9Al(CoO4)2,1.9766
Li3V(BO3)2,1.9767
Na3InSiGe(PO6)2,1.9768
Cs3Bi2(PS4)3,1.9768
RbErSe2,1.9769
K3V(PO4)2,1.9769
AlFe3(SiO4)3,1.9770000000000003
Te2Mo2SeS,1.9771
Rb2TaCuSe4,1.9771
K2UO4,1.9773
ReF7,1.9773
Ca(GaSe2)2,1.9773
CsU2H3(C2O7)2,1.9774
ZrSnCl6,1.9774000000000005
CsRbMg14O15,1.9776
Ca3Zn3(TeO6)2,1.9777
Na2Nb5Ga3(PO4)12,1.9777
Lu2Mn(GeO3)4,1.9777000000000005
Fe2Te4BrClO10,1.9778
MgFe4(PO4)4,1.9779
Sr2LuBiO6,1.978
NaTaSi3Ge3(SO8)3,1.978
Na14Ti3Zn5(PO4)12,1.978
LiV6F13,1.9781
Rb2MnP2H3(O4F)2,1.9783
MgSn2WO6,1.9784
Pb4SeBr6,1.9784
Tl(C2O5)2,1.9784
CaWO3,1.9784000000000008
K2ZnO2,1.9785
LiVOF2,1.9785
Li2Ti3CoO8,1.9785000000000004
V3H8(NO4)2,1.9786
Li3BiS3,1.9787
BaCaCeGeO6,1.9787000000000003
Ge(PbS2)2,1.9788
UH2Cl2O3,1.9788
P5HC(NCl6)3,1.9789000000000003
KSrPrSeO6,1.9789000000000003
Hf2N2O,1.9789999999999992
MoH8S2(NO)2,1.979
Na4Mg(MoO4)2,1.979
Co3C2(SeO5)2,1.9791
Mn4OF6,1.9792
NaCaH3,1.9794
RbLaMg30O32,1.9794
SrUO4,1.9794999999999996
TcBi3O8,1.9795000000000005
Li4V2SiGeO10,1.9796
Y2MoO6,1.9796
H2CS3,1.9797
Rb3DyO3,1.9797
MnV5H20NO22,1.9797
S3N2,1.9798
AsS,1.9798
Cs4ZnO3,1.9799
Li2CrCSO7,1.9799
V3SiP5O19,1.9799
LaH6CO7,1.98
ZnPS3,1.98
Tl6Si2O7,1.98
K2Zn(H2N)4,1.98
ThSnI6,1.98
NClO,1.98
V2Cd(P2O7)2,1.9801999999999995
MgVPO5,1.9802
Li2FeOF3,1.9802
Li5CoHO4,1.9803
Li3BiS3,1.9803999999999995
LiAlCoO3,1.9805
AsS,1.9805
Rb2Nd2Mg(WO4)4,1.9805
Tl2CoH12(SO7)2,1.9805
KMgNi2H3(SeO5)2,1.9805
RbSiBiS4,1.9806
CsSb2PO8,1.9806
KUVO6,1.9806
CaNbP(SO6)2,1.9806
BaU2V2O12,1.9807
Tl2(SeO3)3,1.9808
Sr9ThCl22,1.9808
LiAuF4,1.9809
Sr4ZrTi3O12,1.981
Li3CuS2,1.981
LiAlCrO3,1.9811
Li3SbS3,1.9811
Er2MgTl2(WO4)4,1.9812
Bi2(CN2)3,1.9812
Na21Ca4Nb8Si15(PO24)3,1.9813
Na10Mg3Ti5(PO4)12,1.9813000000000005
MgTiMnO4,1.9813000000000005
Li2Cr3Si3O10,1.9814
Dy2MgS4,1.9814
SrU(SeO4)2,1.9814
Na5La2Ti2SiP5O24,1.9814
Na4TeO5,1.9815
V2ZnO5,1.9815
V3(H3O5)2,1.9816
Li3Cr(PO4)2,1.9816000000000005
LaMgI5,1.9817
Na3MgGe(PO4)3,1.9817
CaPtO6,1.9818
Nb3ClO7,1.9818
KMg30BO31,1.981800000000001
Li5NCl2,1.9819
Al2FeP2(HO)18,1.982
La13Al12Si18(N13O5)3,1.982000000000001
KNaNb2O6,1.9821
MgFe3PO7,1.9821
H10IrC2(ClO)3,1.9822
KU2H5C4O15,1.9824
Cd2Ga2Se5,1.9824
Na3LaNbSi2PO12,1.9824
MgV2(PO4)2,1.9825
CoHCO3,1.9825
Li5MnCr3O8,1.9825
Li7VO5F,1.9825
NaBrO2,1.9825
Sm9Al(SiS7)3,1.9825000000000004
MgTi3Nb2(PbO3)6,1.9826000000000008
Sr2CaV2(Si2O7)2,1.9826999999999997
Cr2HgO7,1.9827
Sr3U(Te2O7)2,1.9828000000000008
Na9Nb2Zn4(PO4)9,1.9829
Ti3PbO7,1.9829000000000003
As2S3(NF6)2,1.983
Li2VCrP2(HO5)2,1.9831
Na4Br2O,1.9831
Zn(Bi25O38)2,1.9832
BaCaNiF7,1.9832
LiAu(S2O7)2,1.9833
Li2TiS2O,1.9835000000000005
Li2UO4,1.9835000000000005
CCl3,1.9837
Li12VCr3P4(CO7)4,1.9837
Li5MnF8,1.9837
Na7Zn2SiSn2P5O24,1.9837
Ti3Fe2Ni(PO4)6,1.9837
Ni9Te5(PbO5)6,1.9839
TeS2(NCl)2,1.9841
Na6TiZn7(SO4)12,1.9842
MgMnO2,1.9842000000000004
La2Cd(SeO)2,1.9843
NaHf2Sn2P5SO24,1.9844
YNb2NO5,1.9845
La6Zn(SiS7)2,1.9847
NaGeSbO5,1.9847
LiTiFeO4,1.9847000000000008
Sr2CaTi3O9,1.9848
LiLa4Ga2(FeO6)2,1.9848
Na6BeO4,1.9848
Li2FeO2F,1.9849
Ba3SrMg2(TeO6)2,1.9849999999999997
K2Zn3Se4,1.985
RbGeBr3,1.9851
Ba2LaBiO6,1.9852
Li5CuF6,1.9853
TlVTeO5,1.9854
Rb2CuCl3,1.9854000000000005
Ca7NbSi2N9,1.9855
RbNaO,1.9856
Na2SrV3O9,1.9857
ThP2H2CO8,1.9858
Li2Cr(BO2)5,1.9858
RbCr4BiO14,1.9859
MgCd2(BiO3)2,1.986
H4C7O,1.986
V2Te2O9,1.9862
LiHoS2,1.9863000000000004
Li2CrPO4F,1.9864
K2ScInI6,1.9864
VP3(HO)6,1.9864
LiMg14CrO16,1.9866
LiSnAsCO7,1.9866
MgFe3(PO4)3,1.9866
SiWO4,1.9867
UH18C7(N2O3)4,1.9867
Na4U3Te5O21,1.9868
Li4Bi2C4SO16,1.9868
NaHf2Ti2P5SO24,1.9868
LaMg30BO32,1.9868000000000008
Na2VO3,1.9868999999999997
K3Ta2Cu3Se8,1.987
H6C(N3O)2,1.987
DyInO3,1.9871
Na3Mg2(WO4)3,1.9871
Li2WS4,1.9871
Na2Nb6In2Si7S5O48,1.9871
Ti10Bi(Pb3O10)3,1.9872
Sr2DyBiO6,1.9872
La2Ti3O9,1.9872
KCaCeSbO6,1.9872999999999996
Na4ZnSiSn(PO6)2,1.9873
Ba2V3O9,1.9874
MgGe2WO6,1.9874
H8W(S2N)2,1.9874
P4WO13,1.9875
LiCoPO4,1.9876
Ti2CdO6,1.9877
VZnP2O7,1.9877
SrP11H28N9,1.9877
Na6La5Nb3(PO4)12,1.9878
Co2As2O7,1.9878000000000005
Mo2H12C4N2O15,1.9879
NaPS3,1.988
MgMn(SbO3)2,1.9881
Ba2La6Mg4Ti3WO24,1.9881
Sc3NbO7,1.9881999999999995
VPO5,1.9882
Mo(HO2)2,1.9883
Lu2MgS4,1.9883
Li6VCrP2(CO7)2,1.9883
V2CoO6,1.9884
Mn2SiO4,1.9885
Na3MgCo2SbO6,1.9886
LiErS2,1.9887
Ca2FeWO6,1.9888000000000003
NaFeO2,1.9889
Nd3Y3(Fe5O12)2,1.989
RbTl(SO4)2,1.989
MgVNiP2O9,1.9890000000000003
Li2O2,1.9891
Ba2CuIO2,1.9892
Ba(YS2)2,1.9893
NaNbAl3P3(SO8)3,1.9894
K2NaTlCl6,1.9894
LiVF5,1.9896
Li2Cr(SiO3)2,1.9897
Cs2InGaCl6,1.9897
BaV2(PO5)2,1.9897
LiFeSiO4,1.9897000000000005
Na30Nb20Zn4Si33(SO48)3,1.9898
K4BaU3O12,1.9898
KLaYBiO6,1.9899
ZrZnN2,1.99
Dy3TaO7,1.9902
GaCuBr4,1.9902
Ca3Co2(SiO4)3,1.9902999999999995
Fe3H9S2O15,1.9904
KLaHfSnO6,1.9904
Li6V2O5F2,1.9905000000000004
Rb2V3O8,1.9907
Tm2Mn(GeO3)4,1.9907
CsHg2Br5,1.9907
Ni(HO)2,1.9909
Na15Nb5Zn7(PO4)18,1.991
VH6(OF)3,1.991
Zn2Si5N8,1.9910999999999996
Li2MnPCO7,1.9911
LiMg14CrO16,1.9911000000000003
SrLiNdCoO4,1.9912
KV3Cd4O12,1.9913
Li3SbS3,1.9915
Li3Fe(PO4)2,1.9918
BaH8(IO6)2,1.9918
BaSrMgTeO6,1.9918
Li7V4P9O32,1.9918
Li5NiOF5,1.9919
Li3V2P2O8F3,1.9919
C2Se3N2,1.9919
AgH6C2N5O4,1.992
Zn2FeWO6,1.992
Li7CuO4,1.9921
Si2H2O3,1.9921
Hg2SO4,1.9921
Mo2P2O11,1.9922
Li7Fe6(SiO4)6,1.9923
Cr3P2H40(C8O5)2,1.9923
BaLa2Ti3O10,1.9924
C3S7O,1.9924
Na21Mg4Nb8Si15(PO24)3,1.9925
In14Ga3Pt2O8F15,1.9925
Hf2N2O,1.9925000000000008
KLiMg6O7,1.9927
K2Au(IO3)5,1.9927
U3(HO5)2,1.9927
Cs6Cl4O,1.9928
Na3Nb4Zn2(PO4)9,1.9929
Co2As2O7,1.9929000000000008
Na10Al4Si7Ge4S5O48,1.9931
MgVBr2O,1.9932
Os5(CO)16,1.9933
Na3Li3Rh2F12,1.9933
MnZn2WO6,1.9933999999999996
Ba2Mn2Si2O9,1.9934
MgPb2(WO4)2,1.9934000000000005
Na3CaSn(PO4)3,1.9935
Ca3Fe2(SeO3)6,1.9936
MgP2WO7,1.9937000000000005
CrOF4,1.9940999999999995
BaCaBiSbO6,1.9940999999999995
MgV2(CoO4)2,1.9941
LiVO3,1.9941
SnBrF,1.9941000000000004
CrBPbO4,1.9943
Tl4BrCl3,1.9943
Ba3TaN3Cl2,1.9944
Mg4Al9Cu(SiO4)9,1.9945000000000004
RbAuS,1.9946
RbCu2I3,1.9946
Sm4(GeS4)3,1.9946
BaLa5TiCr5O18,1.9947
KZrVF7,1.9948
Na14Ca5Ti3(PO4)12,1.9948
Rb2Pr2Mg(WO4)4,1.9949000000000003
NdPS4,1.995
RbMg30MnO32,1.995
NaNbGa3P3(SO8)3,1.9951
Nd4(GeS4)3,1.9952999999999996
Rb15W7N19,1.9953
Na7Mg2Ti2SiP5O24,1.9953000000000003
Na2ReO3,1.9954999999999996
Ba4SnGe2(S4Br)2,1.9955
KMgMn2AlGe3(O5F)2,1.9956
TlSO4,1.9958
SiC,1.9959999999999989
LiCoO2,1.996
Na12Nb4Zn2(SiO4)9,1.996
Ca10Ti8NbFeO30,1.9961
Cr2SiO4,1.9961
Al2PbSe4,1.9961
SiO2,1.9962
Li2Co(CO3)2,1.9962
SbXeO2F7,1.9962
Na5In2SiGe2P5O24,1.9963
Li2FeOF3,1.9963
Na3Nb2Zn2P5SO24,1.9963
K2InAsF6,1.9966
LiVFeO4,1.9967
K2Fe2P2O7F2,1.9967
Hf2N2O,1.9967000000000008
Rb3FeO3,1.9968
MgFe2O3,1.9969
SrReN3,1.9969
NaLiLa2Ti4O12,1.9969
CsLi(H2N)2,1.997
MgZn2(WO4)2,1.997
As4S5,1.997
MgSbO3,1.9971999999999996
Ba2ScAlO5,1.9972
Ba4Ti2PtO10,1.9973
KGeAuS3,1.9974
Li2U3V2O15,1.9974
SbBr(OF3)2,1.9974000000000005
KCePrGeO6,1.9978
NaMgNbP2SO12,1.9979
Ba(SO2)4,1.9979
BaGdCl5,1.9979
NaMo6Br13,1.9979
Na10Mg3Ge5(PO4)12,1.9979
SiC,1.9979999999999996
Os4C13SO13,1.998
VSi3Bi61O100,1.998
Mn2BiPO6,1.9980999999999995
Ba2MgMn2(P2O7)2,1.9981
Na3SbSe3,1.9982
Na15Ca7Ta5Si9(SO8)9,1.9983
Na2NbZn(PO4)3,1.9984
Rb2CaNd2(WO4)4,1.9984
V2Se2O9,1.9985
BaNd2NiO5,1.9985000000000004
FeHO2,1.9986
K3BiSe3,1.9986
HgSeO3,1.9987
SrCoAsHO5,1.9987000000000004
NdTe2BrO5,1.9988
Ba5Re3IO15,1.9989
Hf2N2O,1.9989
Mg2TaFeO6,1.999
VOF,1.9991
BP(IBr)3,1.9991
NaAu(IO3)4,1.9991
KC(NO2)2,1.9993
Na6Ta3In5Si6(SO8)6,1.9993
K2AgAu,1.9995000000000005
Li3MnFeCo(PO4)3,1.9995000000000005
Li4V3CrO8,1.9995000000000005
Fe3Te3ClO10,1.9996
RbCr2FeO8,1.9996
Mg30MnVO32,1.9997000000000007
Na2YInSi(SO6)2,2.0
Fe10OF19,2.0
K2NaRhF6,2.0001
Cs4FeO4,2.0001999999999995
Li3V4O11F,2.0002
Na2UO4,2.0002
Na3ScSi3Sn3(SO8)3,2.0002
TlSnF7,2.0003
CaPIO8,2.0004
Li6VO4F,2.0004
Li10Sn(PS6)2,2.0004
Na6La2Nb6Si9(SO16)3,2.0007
BaLiCaVP2O9,2.0007
Mg3MoN4,2.0008000000000004
CaU(MoO4)4,2.0011
Na5LaO4,2.0012
Mg6CrCdO8,2.0012
ZnHNO4,2.0012
CaTi2PbO6,2.0012
Na2TiZnP2SO12,2.0013
BaSrNdBiO6,2.0013
LiV2P2H5O11,2.0013
NClO3,2.0014
Na2Y3NbP4(SO12)2,2.0015
Li10Co(SiO5)2,2.0015
NaMnIO6,2.0015
Li4Cr2C4SO16,2.0016
ReSbOF10,2.0016
FeH2Cl5O3,2.0017
Na3MgGe(PO4)3,2.0019
Zn(HO)2,2.0019
LiMnF4,2.0021
Te2S4(NCl3)3,2.0021
MnH19C6I3N2,2.0021
NaVAsCO7,2.0022
AgB10P2H40C15NCl2O3,2.0022
RbTaO3,2.0024
V4Cd3(PO4)6,2.0024
RbV3(SeO6)2,2.0025
Cs4Mn(SbCl6)2,2.0025000000000004
UCd(MoO4)4,2.0026
ReP(Cl2O)3,2.0027
Mg30BWO32,2.0028
FeHO2,2.0028
BaPb3O4,2.0029
TlV3O8,2.003
Li7V(O2F)2,2.0031
AcCrO3,2.0031000000000008
Mn2Fe3Sn2(CO)19,2.0032
Tm2S3,2.0032000000000005
BaSrSmWO6,2.0034
Ba4MnIn2(S3F2)2,2.0034
P,2.0034
Ba3(PS4)2,2.0034
CaMg30VO32,2.0036000000000005
Dy(BiO2)3,2.0037
SiC,2.0037000000000003
Li7Co(OF)3,2.0037000000000003
Yb(NdS2)2,2.0038
Sr10Sb16H6Se7O30,2.0038000000000005
Hf2N2O,2.0039
Ta2CoO6,2.004
BaMgCoF7,2.004
Li2MgCdP2,2.004
Mg30VFeO32,2.0040000000000004
YAg3(PS4)2,2.0041
Rb2MnV2(ClO3)2,2.0041
TeHO3,2.0041999999999995
Cs2TlSbCl6,2.0043
In5Br7,2.0043
MgSnAs2O7,2.0044
Li2SnTeO6,2.0045
SrCaBiSbO6,2.0045
Na3La2Ge2P5SO24,2.0045
Na7CaTi3Si3(PO8)3,2.0046
Na14Sc4Ti4Si9(SO16)3,2.0046
Al2CdSe4,2.0047
Rb2PtC4(BrN2)2,2.0048
MgNiF5,2.0048
TiMnO3,2.0049
Rb2NaInBr6,2.0049
Y2Cr3O12,2.0049
RbLiMg6O7,2.0049
Tl4Br3Cl,2.005
Fe4OF7,2.005
K3Nb7O19,2.005
Ba8Ce3(SbO6)4,2.0050000000000003
Na6Ti4Nb4Si9(SO16)3,2.0052
Na14Mg4Ta4Si9(SO16)3,2.0052000000000003
SiC,2.0052000000000003
Na3MgMo(OF)3,2.0053
GdCl3,2.0054
La2Ti3O9,2.0054
Sr4CaCr2(SO3)2,2.0054000000000003
BaPSe3,2.0055
Li4Ti15O32,2.0055
RbLi2Cr2(BO3)3,2.0057
Sr2SmWO6,2.0057000000000005
Na8Mg2In2Si3(SO8)3,2.0058
Mo3Se(NO6)2,2.0059
TeHO3,2.0059000000000005
K2PdN2(ClO2)2,2.006
S4N3O2F,2.0061
Ti2In2SiS5O24,2.0061
Na2Ti3ZnP4(SO12)2,2.0061
Li12MnCo3P4(CO7)4,2.0062
Li5NiOF5,2.0063
Rb3MgNb5O15,2.0066
Sb2(SeO4)3,2.0067
LiFe5(P2O7)4,2.0067
TlSbO3,2.0068
Ga(SbBr)4,2.0068
Mg(InS2)2,2.0069
V6O5F19,2.0069
Li8VO5F,2.0073
Na9Ca2Nb4Si6(PO12)3,2.0073
CaMg6CoO8,2.0073
GdTa3O9,2.0074
ZrTlCdF7,2.0074
Sr3Ca(NCl)2,2.0075000000000003
Li3MnFeCo(PO4)3,2.0076
Li3MnOF4,2.0076
Li5NiOF5,2.0076
RbSnI3,2.0077
Sr2Li4MnS3O2,2.0078
Hf2N2O,2.0079
Na3MnP8O23,2.0079
Na3AsSe3,2.0081
MnV4FeO12,2.0082
ErCrHO5,2.0083
CsB6H8O7,2.0083
KHfMg14O15,2.0085
La6Mg(GeS7)2,2.0085999999999995
Rb2CrH2Cl5O,2.0087
TeMoWSe2S,2.0087
Sr2TbWO6,2.0089
MgSnO3,2.0089999999999995
Na4MgTiSi(PO6)2,2.0090000000000003
UPb(SeO4)2,2.0090000000000003
Mg(BiO2)2,2.0092
ZnCoP2H12O11,2.0092
Rb2CoAgF6,2.0093
Li4V3CrO8,2.0093
Y2Ti2SiS5O24,2.0093
Sn4P2O9,2.0093000000000005
KLaPrSbO6,2.0094
K2Li14Pb3O14,2.0095
KCaGdSeO6,2.0096
KCNO,2.0098000000000003
Ba2CaSeO6,2.01
Na2La6Ta2Si3(S3O16)3,2.0101
Ba6Ti5PtO18,2.0101
Sr3BPO3,2.0101
Na3TiZn(PO4)3,2.0101
Sc2SO2,2.0102
K3AsS4,2.0102
CaMn2O4,2.0103
LiCaFe3SnO8,2.0104
Bi19(O9F)3,2.0105000000000004
Rb8Fe2O7,2.0105000000000004
CrH12C8S2(NO)2,2.0106
LiCrPO4,2.0107000000000004
Li2VCrP2(O4F)2,2.0108
H4N2O3,2.0109000000000004
KSbO2,2.011
Na18Ta20Zn4Si27(SO16)9,2.0111
BrN3,2.0113
KPr(PSe3)2,2.0113000000000003
MoSeS2Cl5,2.0114
SrCaTbBiO6,2.0115
HfMg6SiO8,2.0116
SrLaCrO4,2.0116
Sr2AlGaFe2O7,2.0116
Li4V2Si(PO6)2,2.0116
Ce3ZrO8,2.0117000000000003
ZnTeH12Se3N4,1.6757
Na18Ca8Ta16Si21(S5O48)3,1.6757000000000002
CsK2CoO2,1.6757999999999995
Nd3CuGeS7,1.6757999999999995
BaMn2O8,1.6758
K2Nd2Mg(SO4)4,1.6758000000000002
Li2FeO2F,1.6758000000000002
CsCr3O8,1.6758000000000002
IrCl3,1.6759999999999995
Mg14VCuO16,1.6760000000000002
InGaS3,1.6761
Yb5S9,1.6761000000000004
ZnSn(GeO3)2,1.6763
NaY2Ge2P3(SO8)3,1.6763
Ga2Sn2S5,1.6763
Li6Fe3Sn(PO4)6,1.6764
Li5Fe5(NiO6)2,1.6764999999999994
CoH14C2(NO)12,1.6765
Mg6TiBO8,1.6766999999999994
Na2Sn3O7,1.6767000000000003
MoNCl3,1.6768
Er2MgV2O8,1.6770999999999998
Li3V(TeO3)4,1.6770999999999998
Li2CrFeO4,1.6771999999999996
LiFe2(BO3)2,1.6772999999999998
RbInCl3,1.6772999999999998
Re3(SCl)7,1.6775000000000002
H6PbCI3N,1.6778
Mg6FeCoO8,1.6778999999999993
Mg2TeWO6,1.6779000000000002
WO2,1.6779999999999995
SmTlS2,1.6781
K5UCr3H3NO17,1.6782
La3SiN3O2,1.6782000000000004
Te2Ru4(CO)11,1.6783
SrAu2(SO4)4,1.6783
DyCuS2,1.6783
Li7Mn(O2F)2,1.6784
Na14Ca2Si9Sn6(SO16)3,1.6785000000000003
Rb2NaMnF6,1.6786
Na6Nb4In4Si7S5O48,1.6787999999999998
MoP2O7,1.6787999999999998
NaScS2,1.6789999999999998
Li7Y7ZrS16,1.6790000000000005
Ga3NO3,1.6791
AlVO3,1.6791999999999998
Cu2HgI4,1.6792
Sm2TiMnO6,1.6792000000000002
Na2Ti3Zn5(SO4)12,1.6793
Mg30FeSnO32,1.6793000000000005
YV(WO4)2,1.6793999999999998
DyMgCu(WO4)2,1.6794000000000002
Ba2TbWO6,1.6795
Sr2MnWO6,1.6795
K3Sm(AsS4)2,1.6795000000000002
P3RhO9,1.6795000000000004
Fe3Pb8F24,1.6795999999999998
MoI2,1.6796000000000002
Sm2Se2O,1.6796999999999995
YCu(MoO4)2,1.6797
Na4Ge2Se5,1.6797
CsCoH18N6(ClO2)4,1.6797
Zn3CdS4,1.6798
Lu4Mg(Te5O13)2,1.6799
Ca(FeO2)2,1.6800000000000002
H6N4O9,1.6800000000000002
V4O7F5,1.6801
K2PtS15,1.6801
NaAg(CO2)2,1.6802
Li2VO2F,1.6802
Li3Cr2FeO6,1.6802999999999997
BaY2CoO5,1.6802999999999997
MgFe2(SO5)2,1.6802999999999997
Na6CaTi7Si6(SO8)6,1.6803
CaU(PbO3)2,1.6803999999999997
K4Na2H18Pd(IO10)2,1.6804
SmFeC6(N3O2)2,1.6804
K3UH6C5SNO13,1.6805
Y2Zn3N4,1.6805
Li2CrFeO4,1.6805999999999996
AgAsF6,1.6806
FeHO2,1.6806
Cs2Zr7CI18,1.6807
SbS3N2Cl7,1.6807
Te4MoW3(SeS)2,1.6807
VCrO3,1.6807
Cd2Te2O7,1.6807999999999996
LaH12S2NO12,1.6808
Ba2NaSr2(SbO4)3,1.6808
Hg9(AsO4)4,1.6808999999999998
Ba3SnS5,1.6808999999999998
MgUO4,1.6809000000000005
MgTi(WO4)2,1.681
Zr2N2O,1.6810000000000005
Fe3MoC11SeS3O11,1.6811
BaMnFeF7,1.6811999999999998
CsC3(SeN)3,1.6814
Zr2N2O,1.6814999999999998
UMo4PbO16,1.6815000000000002
Mo(PO3)4,1.6816
LiAgF2,1.6817
NaMgTa3(PO4)6,1.6818
Na3Sr14La3Ti20O60,1.6818
MgMn2FeWO6,1.6818000000000004
Zn3Co3(AsO4)4,1.6819