formula,band_gap (MP)
ScP2NO8,1.7395
SiO2,1.7395999999999994
Li2Mn2Cr3O12,1.7395999999999998
Li2CrSiO4,1.7395999999999998
K4SnSe4,1.7396
ScGeP(SO6)2,1.7396
Na5GdO4,1.7396000000000005
VZn2WO6,1.7396999999999996
Ba10MgAs6(ClO12)2,1.7397
AuC4(N2O)2,1.7397
VZnPO5,1.7397000000000005
Ba2UBeO6,1.7398999999999996
Cs3AuO2,1.7399
Nb2SnO6,1.7399
CuP4S3Br,1.7399999999999998
TeMo3(NO6)2,1.74
Na4Zn3SiGeS5O24,1.7401
RbMg14FeO16,1.7401999999999995
BN,1.7402
RbV2SeO7,1.7403000000000002
TaZn2MoO6,1.7404999999999995
ErFeC6(N3O2)2,1.7405
Li3Sn2(PO4)3,1.7405
Ti2CoO5,1.7405
Li2CrNi(PO4)2,1.7405
KMnF3,1.7405
Na2LiCaVP2O9,1.7406
K2ScAuBr6,1.7408
FeHO2,1.7408
Ba(ErS2)2,1.7408999999999994
Sr6Sb6S17,1.7409
Na3ZnGe(PO4)3,1.7409
NaTaZnSi(SO6)2,1.741
Ga2Fe2Bi2O9,1.741
La2MgV2O8,1.7410999999999994
Pr10S14O,1.7411
Al2CdSe4,1.7411999999999996
Ga3Bi5Cl12,1.7413999999999998
BaDyFe4O7,1.7414
Na2VO3,1.7414
Hg(Mo3Cl7)2,1.7414999999999998
TlAu(CN)2,1.7415000000000005
NClO,1.7415999999999998
Er2MgMo2(ClO4)2,1.7416
VF4,1.7416
Mn2Bi3Sb3O14,1.7416999999999998
Li2CrO3,1.7417
Sm2MgS4,1.7418000000000002
Ba2Mg(WO4)2,1.7421
Tm2MgMo2(ClO4)2,1.7422
LiVSiO4,1.7422
Na4Sn2H26Se6O13,1.7422
CaSn(SO4)3,1.7422
Ta6Pb4O19,1.7422999999999995
CeZrO4,1.7423000000000002
Ca2YBiO6,1.7423999999999995
K8Li13(FeO4)4,1.7423999999999995
Li2VSiCO7,1.7424000000000002
Na2Sc2Ga2SiS5O24,1.7425
Na10U8W5O44,1.7426
K2O,1.7426
Mg6CrBO8,1.7427
CaLa2Co2Sb2(PbO6)2,1.7428999999999997
NaP7,1.7429
RbVBP2HO9,1.7429
SbF5,1.743
Sr2YGaFe2O7,1.743
Li2Mn(BO3)2,1.743
KVBP2HO9,1.7431
LiFeP2O7,1.7432
Li3Fe8(BO3)8,1.7432999999999998
K2P4PtWClO10,1.7432999999999998
Tm2MgCr2O8,1.7433
Ca2Sb2O7,1.7433999999999998
BaSr3Ti4O12,1.7434000000000005
K3MgSbS4,1.7434999999999998
Cs2KMnF6,1.7435
RbGdS2,1.7435
Li2Co(CO3)2,1.7435
Rb2ScAuBr6,1.7436
LiVPO5,1.7436999999999998
H2Os5(CO)16,1.7437
LiFe2(PO4)2,1.7438000000000002
UH18C4N10O13,1.7439
Cs3LaO3,1.7439
Ti3Sn7O20,1.7439
Cs2Se,1.7441
Sr8MgP4(IO4)4,1.7441000000000004
Ca2LaGa(FeO4)2,1.7441000000000004
Na3CaNbSi(PO6)2,1.7441999999999998
Li3VSiCO7,1.7442000000000002
C3S8,1.7443
La2MgS4,1.7443
K9CuS8(NO9)2,1.7444
Rb4Ca(Se2O7)2,1.7445
Cs2KAlI6,1.7447
Li2V2SiGeO10,1.7448
U(TeO3)3,1.7448000000000006
UTe(PbO4)2,1.745
LiVP2O7,1.745
ZrNCl,1.7451
Er3S2OF3,1.7451
Na3NbZnSi(PO6)2,1.7451
Sr2PrBiO6,1.7451000000000003
Fe8H10O17,1.7452
Li3V2(PO4)3,1.7453
Li4Ti3O8,1.7453
Li3MnP2(O3F2)2,1.7453
Na4Mg3GeP2(SO6)4,1.7453
TiBi2O5,1.7454
K3Sb7(SO3)3,1.7454999999999998
Na2TmCuCl6,1.7455
TaTiGaO6,1.7455999999999996
K5Na3Ta6Nb2O24,1.7456
Li3H3N2,1.7457000000000005
Na3YSi3Sn3(SO8)3,1.7457000000000005
Cs2TlGaBr6,1.7459
Fe2Co3H4(Se3O10)2,1.746
Mn2Nb2Zn2O9,1.7460999999999998
CaFeAsO5,1.7460999999999998
Na6ZnSe4,1.7462
CsCdCl3,1.7462
BaSr7Ti8O24,1.7462
CdGePH3O7,1.7463999999999995
Ti11Fe13O36,1.7464
RbSmGeSe4,1.7464
MnVAgO4,1.7464000000000002
Ni4(BiO2)9,1.7466
SrMg30SnO32,1.7466
Y12Si5S28,1.7466999999999997
Mg30VCdO32,1.7467000000000006
CaSnAsO5,1.7467999999999997
LiFe2OF5,1.7469
Fe4As10PbO22,1.7469
Na3YSi2SnSO12,1.7469
Tm2MgMo2(ClO4)2,1.7469
Ho2TeS2,1.7469
Er3CuGeS7,1.7469
AgH12C4S5N,1.747
Mg2V3O8,1.747
Li3Fe(PO4)2,1.7471
H12PdC2(N3Cl2)2,1.7472
Li3Co5OF11,1.7472999999999996
Mn(BH4)2,1.7473
Dy2VO5,1.7473999999999998
Li4NbFe(TeO6)2,1.7473999999999998
Na4CaTiSi(PO6)2,1.7475
K2InGaCl6,1.7475
Sm3AuO6,1.7477
Li3V2(PO4)3,1.7477
Ba(LuS2)2,1.7477000000000005
KTa(AgSe2)2,1.7478
Na18Mg4Nb8Si15(SO24)3,1.7478
Nb2CoO6,1.7478000000000002
Sr2MnNbO6,1.7478999999999996
V4(P2O7)3,1.7479
Cs4Ta2S11,1.7479999999999998
Na10Ti5Zn3(PO4)12,1.7479999999999998
Li3Cr(PO4)2,1.748
ZnCr2O4,1.7480000000000002
PaInO4,1.7480000000000002
Sr4Ta3PO14,1.7480000000000002
VH10S2(NO4)2,1.7481
Mg(AlC)2,1.7481
MgV2Zn2(SiO5)2,1.7481000000000004
Ba2MgCrMoO6,1.7481999999999998
Rb4CO4,1.7482000000000002
Li5CrCl8,1.7483
H14RhC6NClO4,1.7483999999999995
WCl6,1.7484
Sr6Te6O17,1.7484999999999995
Na12Mg10Ta2Si3(S5O24)3,1.7485
Rb2PdCl4,1.7485
H6RuN3Cl3O,1.7486000000000002
Ho2MgMo2(ClO4)2,1.7487
Cd2(TeO3)3,1.7487
Na5La3TiSi3(SO8)3,1.7487
CrP6(WO8)3,1.7488
Sr2YMgCrO6,1.7488999999999997
V3Ni2P6WO24,1.7489
Li4Mn3OF8,1.749
PaBr3O,1.749
Li3Fe4(OF3)3,1.749
CsGdSiS4,1.749
LiV2OF5,1.7492
Y2MgMo2(ClO4)2,1.7493
Cs3As(PSe3)3,1.7494999999999998
NaSnAsCO7,1.7495
LiVSiO5,1.7495
K2Mg(CoO2)2,1.7495
Li6VFe3(PO4)6,1.7495
Al4Co(BO5)2,1.7495000000000005
Lu2Se3,1.7495999999999996
Nd(BrO2)3,1.7495999999999998
Na2La4Ga4SiS11O48,1.7496
Mg(SbO2)2,1.7496
Sr(PrSe2)2,1.7496999999999998
LiFe3(OF3)2,1.7498
Mn3WO6,1.7498
Ca4CrFe3O10,1.7498000000000005
Pr(BrO2)3,1.7499000000000002
Li2Cr2P2O7F2,1.7499000000000002
Li2VSiO4,1.75
Na2U2Si(O4F)2,1.75
Ba2SmBiO6,1.75
NaLiMg14O15,1.7500000000000004
Pr2MgV2O8,1.7500000000000004
Ba(HoS2)2,1.7501999999999995
Dy2MgMo2(ClO4)2,1.7502
Na2NbGa3Si2(SO6)4,1.7502000000000002
Na5TiAl3Si3(SO8)3,1.7502999999999995
Pr2MgS4,1.7503999999999995
K2NiPb(NO2)6,1.7504
CoH14C2N10(ClO3)2,1.7506
NaSr8NdTi10O30,1.7506999999999997
Na3CoO3,1.7507
Sm9Ga5S21,1.7508
RbPbBr3,1.7508
SiC,1.7509999999999994
MoH4O5,1.751
Li2V2(SiO3)3,1.7510000000000003
Li6NbCo3(PO4)6,1.7511
Er2Sb2O7,1.7512
SrLa7TiGa7O24,1.7512
Th2S5,1.7512999999999996
La2Mn(SeO)2,1.7513000000000003
Cs2PdC2,1.7513999999999998
PWC5Br3O5,1.7514
Cs3GeAsSe5,1.7514000000000003
Rb6U5V2O23,1.7514999999999998
LiFeP2O7,1.7515
VPO5,1.7515
PCl5,1.7516
Zn3Si4(SbO7)2,1.7516999999999996
Li3AlCrO5,1.7516999999999998
Na7SbO6,1.7517
Nb10Pb14O39,1.7517999999999998
KNiIO6,1.7517999999999998
LiMn2F5,1.7518
FeP3H18C6(SO)6,1.7519
CN2,1.7519999999999998
NbVO5,1.752
MgCd2(MoO4)2,1.7521
FePH5CO8,1.7522
Li8SeN2,1.7523
Al3Bi5Cl12,1.7524000000000002
Sr(NdSe2)2,1.7524000000000002
Si2TeH22Pd(C4Cl)2,1.7525
SrMg30SiO32,1.7525000000000004
Zn3Ni7O10,1.7526000000000002
Fe5(BiO4)3,1.7527
Li5VO3F2,1.7527
MgFe2Si2BiO9,1.7527
Li4Cr3CoO8,1.7527999999999997
Al2(WO4)3,1.7529
Rb4Ge9(H3N)5,1.7529
NaAu(SO4)2,1.753
Li4Fe3TeO8,1.753
Na14Ti6Zn2Si9(SO16)3,1.7531999999999996
Gd2HgO4,1.7532
Ca9Fe(PO4)7,1.7533999999999998
Mg2V2(SiO4)3,1.7534999999999994
Zr2N2O,1.7534999999999998
TeMoWSe2S,1.7535000000000005
MgCrFeO4,1.7536
ZrTi(PbO3)2,1.7537000000000005
Li2VBO4,1.7537000000000005
Sr4ZrTi3O12,1.7538
Al2ZnS4,1.7538999999999998
KB6S4(Cl3O4)2,1.7539000000000002
Gd3Se2NO,1.754
Fe2Te2(PbO4)3,1.7540000000000004
LiFeSiO4,1.7540000000000004
Y2HgO4,1.7541
La2Au5F21,1.7541
SrCaNbFeO6,1.7541000000000002
PBr2,1.7542
Na2SeO5,1.7542000000000002
MgFe4O5F3,1.7544
MnAlSiO5,1.7544000000000004
LiV(CO3)2,1.7544999999999995
MgV2P2(HO5)2,1.7545000000000002
Cr2(Hg2O3)3,1.7545000000000002
CsKMg30O31,1.7546
Ta3AgO8,1.7546
CaNiF4,1.7546
LiNi4O4F,1.7546999999999997
Na5Ca3SnP3(SO8)3,1.7547
TaCu3(SeS)2,1.7547
Se2N3O8,1.7548
K5Nb(CN)8,1.7548
Al3BC3,1.7548000000000004
LiBi3(IO2)2,1.7552
MgMnF5,1.7552
Ba4Ti5PbO15,1.7552000000000003
Pd(SCl3)2,1.7553
Na14Mg2Ti6Si9(SO16)3,1.7553
SeBr,1.7553
TlGeS2,1.7553
MgSO6,1.7555
ZnPbF6,1.7555
Li3V(PO4)2,1.7555999999999994
Sm10S14O,1.7558000000000002
La3U2O10,1.7558000000000007
KRb2AlI6,1.7559
LiCoPO4,1.756
BaSrLuBiO6,1.7561999999999998
CdPS3,1.7561999999999998
MoP2O7,1.7563
Li5MnF8,1.7564
MgNb2(CoO4)2,1.7564000000000002
Ba2NdBiO6,1.7565
ScMn(BiO3)2,1.7565
U(OF)2,1.7567
Na2Ca3Zr(SO4)6,1.7567999999999997
Li3Fe5OF11,1.7568
LiV(CO3)2,1.7568
TmCuS2,1.7568000000000006
Li3Al2VO6,1.7569
Na3Zn3GePS5O24,1.757
V2NiO6,1.7571
LiLaTi2O6,1.7571000000000003
SbXeF11,1.7571999999999997
MgNi2(BiO3)2,1.7572
Ba(TbS2)2,1.7572000000000003
Sm2CdS4,1.7573999999999996
LiFe2OF5,1.7574
Rb2ZnO2,1.7574999999999998
H6PbCI3N,1.7574999999999998
Ca5Te3O14,1.7574999999999998
NaNbO3,1.7575
TeMo2Se2S,1.7575
TiNb(BiO3)3,1.7575000000000005
LiVSiO4,1.7576
Li2VPCO7,1.7576
CaVFe(P2O7)2,1.7576000000000005
H5PbCBr3N2,1.7578
Si2H2O3,1.7578
GePbS3,1.7578999999999998
LiNbTe2WO12,1.7579000000000002
Sr2Ti6N2O11,1.758
Te2Mo3W(Se2S)2,1.7581
Na5AgGe2S7,1.7581999999999998
K2Na4Li2Ti4Mn3Fe(SiO3)16,1.7582
SbAsO5,1.7582000000000002
KUClO3,1.7582999999999998
Li2VFeP2(HO5)2,1.7582999999999998
Li3Cr(CoO3)2,1.7583000000000002
Li4NiSn3(PO4)4,1.7584
Rb2NbAgSe4,1.7584
Ho2CoPtO6,1.7584
Ba2YBiO6,1.7584999999999995
Li9V12Te7O48,1.7585
Br2O3,1.7587
Nd3CuSnS7,1.7587000000000002
CsMg30BO31,1.7588
V3(PO4)2,1.7588999999999997
RbV2I3O13,1.7589
Na2TeO5,1.7589
Ti3N4,1.7589
Ba2H6Pt,1.7589
MgFe2(WO4)2,1.7589999999999997
FeHO2,1.759
TlBS2,1.7590000000000003
Ba(SmS2)2,1.7590000000000003
Ho3CuGeS7,1.7592
Li7IN2,1.7593
Na6CaTi3Si4(SO12)2,1.7594
Ca2CrWO6,1.7595
Dy2MgMo2(ClO4)2,1.7595999999999998
Al2CO,1.7595999999999998
Pr2SiTeO4,1.7596000000000007
Sr5ZrTi4O15,1.7596999999999996
Na14Nb2Al6Si9(SO16)3,1.7597
KNiSbO4,1.7597000000000005
Na3P11,1.7597000000000005
Li2VFeP2(HO5)2,1.7599
BaSrSmWO6,1.7599000000000005
Ba(DyS2)2,1.7599999999999998
Ba2PrBiO6,1.7599999999999998
LiV(CO3)2,1.76
GdAsO3,1.7600000000000002
Rb2O2,1.7600000000000002
Cs5Tc6S8Br7,1.7601
Ba(LaSe2)2,1.7602000000000002
CsV(NO4)2,1.7603
K2W4O13,1.7604
Ce3Dy2O9,1.7604999999999995
Li3V(PO4)2,1.7604999999999995
Li2V3CoO8,1.7605
CaC2,1.7605
UTe2PbO8,1.7605999999999995
MgFe6(O2F)4,1.7606
MgV2(CoO4)2,1.7606000000000002
Mg14MnFeO16,1.7607
NiF3,1.7607000000000002
Zr11VO24,1.7607000000000004
CrH10S2(NO2)4,1.7608
BiF5,1.7609
MgFe8(OF)8,1.761
Cs2Tm2Mg(WO4)4,1.761
LiV(CO3)2,1.761
MgV2(FeO2)4,1.7610000000000006
V3OF11,1.7611
MgFeAs2O7,1.7611
Hg,1.7611
Cs2InBiCl6,1.7612
Mn4OF6,1.7613
TlRe3(S2Cl)2,1.7613000000000003
Li3P7,1.7613999999999996
NaTi3NbSi3(SO8)3,1.7614
CaCo6(OF5)2,1.7614
Na3CaSn3P5SO24,1.7614
LiFe2C2O7,1.7614
Na2SrLiVP2O9,1.7614999999999998
V2(OF)3,1.7615
Ba2Ti6N2O11,1.7616
Li2VCr(P2O7)2,1.7616
TlAuCl4,1.7616999999999998
Li4NCl,1.7617
ErAg(PSe3)2,1.7618
La5Ti6S3(ClO5)3,1.7618999999999998
Li2Co(CO3)2,1.7619
BaLi2NiO3,1.762
NaGdS2,1.762
MgV2CdO6,1.7620000000000005
Ba(TeO3)2,1.7620000000000005
Sr6Mg(W2O9)2,1.7620999999999998
CdH9C2(N2O5)2,1.7621
UP2H2CO7,1.7621
Al2Zn(SeS)2,1.7622
Sb2Te(SeF5)2,1.7622000000000002
LiV2O2F3,1.7622999999999998
SnNF3,1.7622999999999998
VO2F,1.7622999999999998
Cd2P4PdO8,1.7623
KNb5Pb2O15,1.7623000000000002
MgV2(CoO4)2,1.7623999999999995
Li3VAs2O9,1.7624
V2(OF)3,1.7625
BaCaDyBiO6,1.7625000000000002
NaMgNiO2,1.7625000000000002
MgAu2(SO4)4,1.7625000000000002
Li4MnF7,1.7626
H6PbCI3N,1.7627
Mg2TeSe,1.7627
Na10Ti6Zn2Si7S5O48,1.7628
ScF3,1.763
Sr2CeSiO6,1.763
Tb2MgMo2(ClO4)2,1.763
Ba4LiW2N7,1.763
LuCuS2,1.7630999999999997
Tl2CS3,1.7631
Sr2NbBiO6,1.7631999999999994
AsH12C4I3,1.7632
Zn2As2O7,1.7632
Ba(TmS2)2,1.7632999999999996
Li4Fe3(SiO4)3,1.7633
Sm2MgSe4,1.7634
LiV2F9,1.7635
CsRbMg30O31,1.7635999999999994
KBi(PSe3)2,1.7637
K2RuNCl5O,1.7638
Er5C2Br9,1.7638000000000005
Sm3MoO7,1.7639
SrTa2O7,1.7640999999999998
K3HoMgV2O8,1.7641000000000002
Ca2Nb4Si3(SO6)6,1.7642
VFeO4,1.7642
Zn5SeS4,1.7642000000000002
Li2VF6,1.7644
Mg(FeO2)2,1.7645
C3NClO,1.7645
Sr2MgZn2Sn2(PO4)4,1.7645000000000004
LiFe2OF5,1.7646000000000002
Na7Nb2Zn2Si3(PO8)3,1.7647
Na4CO4,1.7647
Cr2H24(IN3)3,1.7647
Cs2Cr4O13,1.7647
Rb8Mg(FeO4)2,1.7648
La9In5S21,1.7648
Y2MgMo2(ClO4)2,1.7649
Li3CrB4O9,1.7649
Na6Hf4Ti4Si7S5O48,1.765
Na8Zn3Si3Sn(SO8)3,1.7651
V(PO3)4,1.7651
Li8CrO6,1.7651999999999997
Mg(ScSe2)2,1.7652
PNO3,1.7652
TiFe2Bi2PbO9,1.7652
Li7VO5F,1.7652
KCaNi2H3(SeO5)2,1.7653
Ti4SnO10,1.7655000000000003
Te(HO2)2,1.7656
MgCr4(WO6)2,1.7657999999999996
AlRhO3,1.7659000000000002
Na10Ti4Ga4Si7S5O48,1.7659999999999998
VF4,1.7662000000000002
Ba2P7I,1.7662999999999998
Li3BiS3,1.7663
Na21Nb8Zn4Si15(PO24)3,1.7663
SbS2NCl8,1.7664
Ti2SCl12,1.7664999999999995
K2LiRhF6,1.7665
Gd2MgTl2(WO4)4,1.7665000000000002
UP2(PbO5)2,1.7665999999999995
CsVTeO6,1.7666
VBP2H5NO9,1.7666000000000002
CoAgPO4,1.7666000000000004
Ba2MgMnWO6,1.7668
K2B6H5NO2,1.7669
MgFe4(O3F)2,1.767
Ga2WO6,1.7670999999999997
SrAl7Tl5Si5O24,1.7671
K2NiC4(SO)4,1.7672
Nd(FeO2)3,1.7674
Fe2S3(NO6)2,1.7674
K3H3Pd,1.7674
SrLaTiFeO6,1.7674000000000003
Li2Ti3NiO8,1.7674000000000003
MgMnF5,1.7675999999999998
CaFe8(OF)8,1.7675999999999998
LiMg6FeO8,1.7675999999999998
Dy2CoPtO6,1.7675999999999998
LiMg14FeO16,1.7675999999999998
Nb2CoO6,1.7676000000000005
Mg(FeO2)2,1.7678000000000005
YCrO3,1.7679
ZnAg2(PS3)2,1.7679999999999998
In6WO12,1.7679999999999998
HgWO4,1.768
Nb9VO25,1.768
MgFe4(OF)4,1.7681
ZnSeO5,1.7682
K2PSe3,1.7683
Te3MoWSe,1.7683
Sr2FeWO6,1.7683999999999995
Ba2LiReN4,1.7685
Ca3Fe2(WO6)2,1.7685
Na3VBPO7,1.7686
Rb2ZrS4,1.7686
Rb2ReF6,1.7687
NaB6S4(Br3O4)2,1.7688
LiCrO2,1.7688999999999997
Cs4PbO4,1.7688999999999997
AuN5O14,1.7689
SrPbS2,1.7689
K4U5Te2O21,1.769
Y(FeO2)2,1.7691
Rb2NbAgSe4,1.7691
Gd3AsO7,1.7693
Na3WN3,1.7694
RbLaNb2O7,1.7695
Ag3Mo3AsO13,1.7696
TbScS3,1.7696
Ba2LaBiO6,1.7696999999999994
Li7V(O2F)2,1.7696999999999998
LiCrP2O7,1.7696999999999998
Na2Cr4O13,1.7697
SrLiNb2O6F,1.7698999999999998
SrLiCoF6,1.7699
Tl2GeS3,1.7699000000000005
La5Cu6S7O4,1.7699999999999996
Cs2Hg3H2I8O,1.77
Er2TeS2,1.77
Na5Mg2Ge2P5SO24,1.7700000000000002
Hg3(SeCl)2,1.7701
Cs3PSe4,1.7701
Sr2Ti6N2O11,1.7702
RhPb2F7,1.7702
KV2PO8,1.7702
Sn5O6,1.7702
V3OF11,1.7703999999999998
HgF,1.7704
Ba2SmWO6,1.7704000000000004
Y9Ga5S21,1.7704999999999995
MgGe4(MoO6)2,1.7705000000000002
LiAg2(NO2)3,1.7706
Li6Ni3P6WO24,1.7706000000000002
Na3V(BO3)2,1.7706999999999995
KNbW2O9,1.7707
CsCoH18N6(ClO2)4,1.7708
K5Te3,1.7708
Nd3SiAgS7,1.7708999999999997
Nd2PbS4,1.7709
TlBr2,1.7709
Ag6Mo10O33,1.771
K2NaBP2,1.771
Cr4P2O9,1.7710000000000004
Ba2CaV2(Si2O7)2,1.7710999999999997
Bi2Pd(SeO3)4,1.7711
Na3TiFe3O8,1.7711000000000006
Co2As2O7,1.7712
BSe2,1.7712
LaFeWO6,1.7712000000000003
K3AlI6,1.7713
La2GaCoO6,1.7713
Na5Ca2Nb2SiP5O24,1.7713
SrLaVO4,1.7713
Sr7CaTi8O24,1.7714
GdInO3,1.7714000000000003
SrV2(P2O7)2,1.7714999999999996
V2OF5,1.7715
LiV2(CO3)4,1.7715999999999998
VOF2,1.7716
Ca2AlFeO5,1.7716999999999996
NiSnO3,1.7717
K3Cr(CN)6,1.7717999999999998
MgMn(SbO3)2,1.7717999999999998
K2AlInBr6,1.7719
Ba2Mg(CoO3)2,1.7720000000000002
Na4TiZn3P2(SO6)4,1.7720000000000002
Pr5Ti4FeO17,1.7721000000000005
NbVO5,1.7722
Sr3Sc3N5,1.7723
Sm2CoPtO6,1.7723000000000004
SbO2,1.7723000000000004
Li2VF6,1.7724000000000002
Yb2S3,1.7725000000000004
AgNO2,1.7726
LiVSi4(HO6)2,1.7726000000000002
CdPS3,1.7726999999999995
Ca(ClO)2,1.7727000000000002
Li4Ti3Ni2Sn3O16,1.7728000000000002
Li2VCrO4,1.7728000000000002
Li2NiSn(PO4)2,1.7729999999999997
NaSr2ReO6,1.773
Sr4TaFeO8,1.7730000000000006
VZn(SiO3)2,1.7731000000000003
Mn3Ag2(P2O7)2,1.7732
Ba2Sr2CaTi5O15,1.7732
CsYMg30O32,1.7733999999999996
Nb3GaSi3(SO8)3,1.7734
VInO4,1.7734
Sr3MoN4,1.7734000000000003
LaMg14BO16,1.773600000000001
DyScS3,1.7736999999999994
VZnP2O7,1.7736999999999998
Ba3MnNb2O9,1.7737999999999996
Sr2V3O9,1.7738
La4Zn3O9,1.7738000000000005
AgSbF6,1.7739
NaZr3NbSi3(SO8)3,1.7739
Sm3CuGeS7,1.7739000000000005
Li2V2P2O11,1.774
Cd(AgI2)2,1.7741000000000002
K2V3P4H4O19,1.7741000000000002
Na5InO4,1.7741999999999998
Na6ZnSi4Sn3(SO12)2,1.7742
SbSCl9,1.7743
Na4CaNbSi2PO12,1.7744
Li5Ti2Fe3O10,1.7744000000000004
Zr2N2O,1.7744999999999995
InBN2,1.7745999999999995
BaYFeO4,1.7746
Hf2N2O,1.7746000000000004
Mg2(TeO3)3,1.7748
Na12Ca4Nb2Si6(SO12)3,1.7748
Na4MgV2O6,1.7748000000000004
Cs5Nb2S4Br9,1.775
V5H28C8N13O17,1.775
LaSnP(SO6)2,1.7751
Ba3P14,1.7751
CdPdF6,1.7751
Te6Mo3WSe2,1.7752
Li3V4O11F,1.7753
Na14Zn4Si7Sn4S5O48,1.7753
Nd9Al5Se21,1.7754
K2ZrS4,1.7754
Te2MoW3(SeS2)2,1.7755
Te2Mo(WSe2)3,1.7755
PrNb5O14,1.7755999999999998
CsInCl3,1.7756999999999998
W(OF)2,1.7757
KNb4InO12,1.7758
MgFe4(OF)4,1.7758000000000005
YScS3,1.7758000000000005
CaBiWO5,1.7759
Cs2Hg3(GeS4)2,1.7759
Ag2PS3,1.7759000000000005
Na2La3NbSi2(SO6)4,1.7759999999999998
Ge2MoO6,1.7760000000000002
Fe5(OF4)2,1.7760999999999998
LiMn(PO3)4,1.7762
Na2V3P2O13,1.7762
Nb2NiO6,1.7762999999999995
CsBr2F,1.7763
Cs2PrCuI6,1.7763999999999998
BaDyNbSnO6,1.7764000000000002
InHO2,1.7764000000000002
Ba3Al3N5,1.7764999999999995
SrCaTbBiO6,1.7765
MgCo6(OF5)2,1.7765
CaSb10(S3O5)2,1.7765000000000004
SbNCl8O,1.7767
Y2MgS4,1.7768000000000002
Zn2As2O7,1.7769
La5Ti6S3(ClO5)3,1.7769000000000004
TiMnO3,1.7771999999999997
Na2S5,1.7772
SiC,1.7772000000000006
Fe3(TeO3)4,1.7774
SrVZn(PO4)2,1.7774
LaTl(PSe3)2,1.7774999999999994
CsNa5(WN3)2,1.7775
RbLi2(H2N)3,1.7775
Na2AgMoF6,1.7775
Tb3Fe5O12,1.7775000000000003
Li2Cr(PO4)2,1.7776
La2Ti3ZnO10,1.7776999999999994
Na5Mn3S4(O4F)4,1.7777
MgSn2O5,1.7777000000000005
LiFe4(BO3)4,1.7777999999999998
KAuS5,1.7779
LiFe2(BO3)2,1.7779
Li4CrFe3O8,1.7779000000000005
Pr3CuSnS7,1.7779999999999996
CrB3(HO3)3,1.778
SbN3Cl4,1.7782
Sr(SmSe2)2,1.7782999999999998
Ca2MnO3,1.7783000000000002
FeBiO3,1.7783000000000009
Na5LiMn2O8,1.7783999999999998
Tl6SI4,1.7784000000000004
Li3Mo3P3O17,1.7785000000000002
CaUO4,1.7785000000000002
Ba3Ga3N5,1.7785000000000006
Zr7VO16,1.7786
Na3CaGaSi(SO6)2,1.7786000000000002
YbI2O,1.7786999999999995
MoH8(S2N)2,1.7787
TmAg(PSe3)2,1.7789
Cd(AuF4)2,1.7789
Te4MoW3Se4,1.7789000000000006
Li4CrO4,1.779
YBi(WO4)2,1.779
CsC3(SeN)3,1.7791
Bi2XeF12,1.7791999999999994
KNaZnO2,1.7792
RbMgCu2H3(SO5)2,1.7792
MgV2ZnO6,1.7794000000000003
Ba2PrBiO6,1.7795999999999998
ScAuO2,1.7796000000000003
HoAgS2,1.7796999999999996
Ba3Sc3N5,1.7797000000000005
Li2Ni(CO3)2,1.7797999999999998
Sr2CaTi3O9,1.7798999999999996
Li4TiCo2Ni3(PO4)6,1.7799
U(ClO)2,1.7799
BiRu2(CO)6,1.78
CeTh3O8,1.7800000000000002
Ba2NaLaTi4O12,1.7800000000000002
Na15Ta5Zn7Si9(SO8)9,1.7800999999999998
Li2MnBr4,1.7801
Sn2Cl4O3,1.7801
LiVFeP2(HO5)2,1.7801
Te2MoWSe2,1.7801999999999998
BaYNbSnO6,1.7801999999999998
H8Pt(NCl3)2,1.7803
Li2AlCoO4,1.7803
HgC8(I2N)2,1.7803999999999998
Mg14MnZnO16,1.7804000000000002
LaFe5Bi4O15,1.7804000000000002
Pr2FeSbO7,1.7804000000000002
YBi(WO4)2,1.7804000000000002
CaMg30VO32,1.780499999999999
Hg4Pb2N6O19,1.7805
Ba3La2Cl12,1.7805000000000004
Rb2Pd(NO3)4,1.7806000000000002
Hg3AsSe4I,1.7807
Sr2V3O9,1.7808000000000002
ZrTiZn4O8,1.7809
KVFeP2H5O11,1.781
Fe4OF8,1.7812
SbH5(Cl3O)2,1.7813
YCr3Se2ClO8,1.7814
TaAl(WO4)2,1.7815999999999996
Al2Fe3(BiO4)3,1.7816999999999998
Cs3Ge2Sb3O13,1.7817
CsTaPS6,1.7818
Ca4SN4,1.7818000000000005
LiCrSiO4,1.7818999999999994
BaSrBiSbO6,1.7818999999999994
FeBiO3,1.7818999999999998
CoB10(H7C4)3,1.7818999999999998
K2Pt(NO2)4,1.7819
Li2Fe3F8,1.7819
LiFe4(BO3)4,1.7819000000000005
Ba2TbWO6,1.7819000000000005
SrLaMnWO6,1.7819000000000005
CsPbBr3,1.7819000000000005
TlCr4BiO14,1.782
SmS3(NO3)3,1.782
Na2FeAgF6,1.7821
Mn2Pt(CO)12,1.7822
MgMo2(Pb2O5)2,1.7824999999999998
SrCaSmBiO6,1.7824999999999998
Pt(CN)2,1.7825
Ba6V4S11O5,1.7825
MgZn(FeO2)4,1.7825000000000002
V2Cd4(TeO5)3,1.7825999999999995
In9Ga3(BiS6)4,1.7826
NaCa2Ti2PS5O24,1.7827
Li2CuPO4,1.7827000000000002
La3CuSiS7,1.7827000000000002
Li4Cr3FeO8,1.7827000000000006
TeMoWSe3,1.7827999999999995
CsSbS6,1.7828
Ba2CoSi2O7,1.7828
K2Mg(CoO2)2,1.7828
Zn2Sb2O5,1.7828999999999997
Sr2NbFeO6,1.7829000000000002
TiFe(PO4)2,1.783
KH13CBrNO7,1.783
K3NbSe4,1.783
Ba2TeO,1.783
Te4MoW3(SeS)2,1.7830999999999997
Fe6P4H17O27,1.7833
CrPO4,1.7833
Sr4Ti3O10,1.7833
Na5Fe2P2(CO7)2,1.7834
FeH12C5NCl2O5,1.7834000000000003
Ba2LiY2(Fe2O5)2,1.7834000000000003
Mg30SiNiO32,1.7834000000000003
CsI4,1.7836
Li2TiFeO4,1.7837
BaLaTiFeO6,1.7837999999999994
Sr2Mg(MoO3)2,1.7837999999999994
Hf2Sb2Pb4O13,1.7838000000000005
U3(HO5)2,1.7838999999999998
Na4VP2O9,1.7839
Li3NbS4,1.7839
Ba2SrMgWO6,1.7839999999999998
IClOF,1.7840000000000005
K2Hg3S4,1.7842000000000002
LiVF5,1.7843
Na8Mg3Sn(PO4)6,1.7843999999999998
Li2VFeP2(HO5)2,1.7845
RbN3,1.7845
Sr17(Ta5S21)2,1.7845
KSrNb2O6F,1.7845
YbCeO3,1.7846000000000002
Ba4Fe12Si8ClO35,1.7846000000000006
Nd5Ti4FeO17,1.7847
LiNi5O5F,1.7847999999999995
La2CdS4,1.7847999999999995
NaTl2RhF6,1.7848000000000002
K4U(PO5)2,1.7849
Ba2As6O11,1.7849000000000004
V2P2H2O11,1.785
Sr9Zn4(CuO7)2,1.7851
SiGeN2,1.7851
LiVF4,1.7851
NbVO5,1.7853
BaAu2(SO4)4,1.7853
CsRb2PdF5,1.7853
LiVCO3F2,1.7854
NaNbSi3Ge3(SO8)3,1.7855
USiPbO6,1.7855
BaReN3,1.7855000000000003
BaDy2PdO5,1.7855999999999996
Na2YNbSi(PO6)2,2.0117000000000003
H21OsC9NO7,2.0118
CaNiO2,2.0118
Na3Ca4Nb8P15(SO24)3,2.0119
WSCl4,2.0119
Li12V3NiP4(CO7)4,2.0119
Li2UO4,2.0119
SrTa2Bi2O9,2.012
Mg(AlS2)2,2.0120000000000005
CsPbBr3,2.0121
NaTeH12(CO)3,2.0122
MgP4(Br3O)4,2.0122
Li3TiCr3O8,2.0123
CoP2H24C8S4NClO4,2.0123
Li3IrF6,2.0124
Sr3SmRhO6,2.0124000000000004
Sr2CaMoO6,2.0125
ZnCr2P2O9,2.0125
Na30Mg16Ta8Si15(S7O48)3,2.0125
SrFe3P3O13,2.0126
Bi6As9Se4S10(O4F13)5,2.0126
Ba3B3N5,2.0126
MgTe4Pb6(BrO3)4,2.0126000000000004
NaMgNiIO6,2.0127000000000006
CaCoGeO4,2.0128