formula,band_gap (MP)
Li3Cr(BO3)2,3.0780000000000003
RbHO,3.0781
Ca10P6O25,3.0781000000000005
CsUN3O11,3.0783
BaMg30NiO32,3.0784
K3SbN3(O3F)3,3.0785
Na14Mg4Sc4Si5S7O48,3.0786999999999995
Te3As2O11,3.0787000000000004
Cs3NO4,3.0787999999999998
SnH7C3NO5F,3.0788
Li2CrSiO4,3.0789
Gd3Lu2(GaO4)3,3.079
SrCaNdSbO6,3.0791
LiSiBiO4,3.0791
Na2SiGe2(PO6)2,3.0792
Sr(CO2)2,3.0794
La2MgTiO6,3.0794000000000006
Al2NiO4,3.0794999999999995
Li2MnFe(BO3)2,3.0795000000000003
NaNbGeO5,3.0796
Sn(SeO3)2,3.0796
TeSeO4,3.0796
Li2MnPO4F,3.0801
Sr2CrCO3F5,3.0801
Li2Ni(WO4)2,3.0801
Y2(SeO4)3,3.0802
H9C3SN4O3,3.0802
CsMgBO3,3.0803
YAl6Si30(N15O)3,3.0805
AlBPbO4,3.0805
LiFeF4,3.0807
AgH9C7S2(OF)4,3.0807
MnCO3,3.0809
Ba2AlCo2F11,3.0809
LiFe2F7,3.081
H7NO6,3.0810000000000004
Li2FeSi3O8,3.0810000000000004
H5PbC2SN6Cl,3.0812
Na9Mg2Ta10Si9(PO8)9,3.0812000000000004
Ho2Si4CN6,3.081200000000001
BaBi12Mo4WO34,3.0813
BaTb2ZnO5,3.0815
Li4AlCr3O8,3.0815999999999995
Ba3TiZnWO9,3.0817
SrCo3(P2O7)2,3.0817
NbPO5,3.0819
Li8Mn5Fe3(BO3)8,3.082
CsMg30GaO32,3.082
CsGd(MoO4)2,3.0820000000000003
Ca2TiSi2SnO10,3.0821
SrMg30FeO32,3.0823
Nd3Si6N11,3.0824
Ba3MgTiWO9,3.0826
SbAsO4,3.0829
Li2CoSiO4,3.083
Nd4S3NCl3,3.0831
Li2Sn3(P2O7)2,3.0831000000000004
Na10La2Ta6Si11SO48,3.0832
Rb3AsBr6,3.0833000000000004
Na6TaZn5P3(SO6)6,3.0833000000000004
Nd2Ta2Cl2O7,3.0833000000000004
Na6Y2Ta2Si5SO24,3.0834
BaTi(SiO3)3,3.0835
Mg6Te5O16,3.0835000000000004
Na4Cr2H6O11,3.0836
Na7TaAl3Si3(PO8)3,3.0836
ZnCrF5,3.0837000000000003
Pr2W2O9,3.0838
Cs3SbO3,3.0838
Y2TeO6,3.0839000000000003
BaTe2Mo2(HO6)2,3.0841000000000003
NaTa2In2P5SO24,3.0842
C6IF7,3.0843000000000003
RbHS,3.0844000000000005
KRb2CoF6,3.0848
CaPS3,3.0848000000000004
CoP3H12NO7,3.0849
GaAsO4,3.0849
Cs2Mo5O16,3.0849
NaLi2CoF6,3.085
K2AgC3(SN)3,3.085
VH16C4(NO4)3,3.0852
SrCrSn(PO4)3,3.0852999999999997
Gd4Ga2O9,3.0853
Sr7W4O19,3.0853
ZnH20PtC4(NO3)4,3.0854
BH(PbO2)2,3.0854
LiCrPO4,3.0855
LiCrPO4,3.0857
Sr3Nd10Al12Si18(N2O)18,3.0857
SbN(OF3)2,3.0857
Li2MnFe(BO3)2,3.0858
Ni(XeF8)2,3.086
MgMn(Si2O5)2,3.0860000000000003
Cs2V2H2O7,3.0863
NaTa3AlSiP5O24,3.0864
MgCoP2O7,3.0864000000000003
Ba5Ta4O15,3.0865
Cs2YTlI6,3.0866
Na3SbO3,3.0866000000000007
Na14Ca4Sc4Si5S7O48,3.0867
ClF5,3.0868
Ba3Li2V2Cl4O7,3.0868
La3Mg2NbO9,3.086899999999999
Sb5PO10,3.0869000000000004
ZrNb2ZnO8,3.087
Cs6Si2NiO8,3.087
Mg14NbFeO16,3.0870999999999995
SrNdAlO4,3.0873000000000004
Na6Sc3TaSi4(SO12)2,3.0874
Mg2Ta2MnO8,3.0874
Li2Fe2(SiO3)3,3.0875
VF5,3.0875000000000004
LiMnPO4,3.0876
KBeH3,3.0876
Na3BiBAsO7,3.0877
ZnH20PdC4(NO3)4,3.0881
P2O9,3.0888
PBr3O,3.0889
BaCa2I6,3.0889
Li2MnFe(BO3)2,3.0889
Na7Fe7P6(O8F)3,3.0890000000000004
K3Mo2BrO7,3.0891
Li2FeF4,3.0891
K3ScV2O8,3.0893
Li3MnPCO7,3.0894
Pb2WO5,3.0894000000000004
Na8Al2Si5Sn2SO24,3.0896
DyErO3,3.0896
LiCoPO4,3.09
LiNdTi2O6,3.0901
UP2O7,3.0901
NaAs4BrO6,3.0901999999999994
K2Sc2Mo(PO6)2,3.0902000000000003
MgTa2O6,3.0904
Li3FeOF3,3.0904000000000003
CdSeO3,3.0904000000000007
Rb2NdI5,3.0905
Na7Y2Si3Sn2(PO8)3,3.0906
Ba4CaZr5O15,3.0906
Ca3Ti3Cr2O12,3.0907
Na3ScTa3Si3(PO8)3,3.0909000000000004
La2(GeO3)3,3.091
SnSb2H24C8(SCl)2,3.0912
CsIO3,3.0912
ThSO6,3.0912000000000006
VF5,3.0913000000000004
Nd2Ti4O11,3.0914
NaSeO3,3.0914
Mg2Ta2FeO8,3.0914999999999995
Na5Zr2Si3Sn2(PO8)3,3.0916
Li4Cr3GaO8,3.0916
Li2Cr(CO3)2,3.091600000000001
K2Li3FeO4,3.0917
HC,3.0918
CsNO3,3.0919
Ca5TiSn4(BO3)10,3.092
Sr(H8O5)2,3.092
Na6Ta3Ga5(PO4)12,3.0920000000000005
Na9Ca2Ta10Si9(PO8)9,3.0921
LiMnF3,3.0923
Rb2PrI5,3.0923000000000003
LiPr(MoO4)2,3.0924
Li2Mn4P4O15,3.0924000000000005
Lu2SO2,3.0925
Li2MnSn(PO4)2,3.0925
Lu6MgWO12,3.0925
Li2Fe2Si5O13,3.0926
LiVF6,3.0926
Sr3Zr2O7,3.0926
Rb3MgH5,3.0927
Yb4Mg3H14,3.0929
AsH9C2S(NO)4,3.0929
KNb(PO4)2,3.0929
Tb4MgAl2(FeO6)2,3.093
Na9CaTa5(SiO4)9,3.093
Sr2DyNbO6,3.0931
NaCaGa3(SO4)6,3.0931
Rb2Se2O7,3.0932
TbGdO3,3.0933
LiSiBiO4,3.0935
Ta2Te2O9,3.0935000000000006
Li2Fe4OF8,3.0936000000000003
K2BeO2,3.0937
Sr2LaNbO6,3.0938
P,3.0938
MgS8(O5F2)4,3.0938
Cs2TlBiF6,3.0939
Na7Ta2In2Si5PO24,3.0939000000000005
LiBi2PO6,3.094
Gd2Hf2(MoO4)7,3.0940000000000003
KCr2PbF9,3.0941
KPb2C2O6F,3.0942
Ba(TaN2)2,3.0942000000000003
NaY(Te2O5)2,3.0942000000000003
La2MgTiO6,3.0942000000000007
P2WO7,3.0944
Li4Cr2Si4O13,3.0944
TaCl4F,3.0944000000000003
H9C3SN4O3,3.0945
SrCaNdSbO6,3.0946
La2C2N4O,3.0946000000000007
Na2GeH12S2O7,3.0947
F2,3.0949
K2NaScBr6,3.0952
ZnTeMoO6,3.0952
K2Na2Gd4Nb2O13,3.0952
Ge2RuC4(Cl3O2)2,3.0953
Ho2Zr8O19,3.0953000000000004
RbH(CO2)2,3.0954
KMg2AlFeSi3(HO6)2,3.0954
Li8Mn3Fe5(BO3)8,3.0954
As3Pb5ClO12,3.0954999999999995
HSO3F,3.0957
PrAg(WO4)2,3.0958
HfMg14BO15,3.0958
Na3Ti2P2O10F,3.0958
TiZnH12(OF)6,3.0958
LiMnPO4,3.0958
CsPb2Br5,3.0958
LiCr(PO3)3,3.0959
Ca2CoSi2O7,3.096
TaSiH33C11N5Cl,3.0961000000000003
H10PbC6S2IN,3.0963
K7RbTi8(PO5)8,3.0963000000000003
H12AuC4N,3.0964
Co2P2H12O13,3.0964
K2RbAsBr6,3.0965
Na5Ga3Sn(PO4)6,3.0965
Na2Hf8Si5S7O48,3.0965
SrCaSmNbO6,3.0967
Zr(MoO4)2,3.0967
Na3TaInSi2PO12,3.0969
Na6Ta3In5(PO4)12,3.0969999999999995
NaTa2Al2P5SO24,3.0970000000000004
NaZr2Al2P3(SO8)3,3.0971
SbClO,3.0971
GdErO3,3.0971
Li2Mn2(SiO3)3,3.0971
Na2ZrZnSi(SO6)2,3.0972
CsCoPO4,3.0972000000000004
BaNd2O4,3.0973
SrEr2O4,3.0973
CsGd(WO4)2,3.0973000000000006
Na2SiSnCO7,3.0973999999999995
Tm2SO2,3.0973999999999995
Li2GeTeO6,3.0974000000000004
Na10Hf2Zn6Si3(S3O16)3,3.0974000000000004
Na6Ca3HfSi2(SO6)4,3.0976
CsVSeO5,3.0977
Al2ZnS4,3.0979
Li2Mn5(PO4)4,3.0979999999999994
NaSbCO2F3,3.098
Sm3VGeO9,3.098
Lu2CoTe2(SO7)2,3.0980000000000003
PH17C4S2(N2O)4,3.0984
KNO3,3.0984
LiNd(MoO4)2,3.0984
CaFe(SiO3)2,3.0986
K3Ce2(NO3)9,3.0986
Li2TeMoO6,3.0987
K2ZnI4,3.0987
Lu2TeO6,3.0987
Li3Sb2(PO4)3,3.0988
NaCoP2HO7,3.0988000000000007
BaY2ZnO5,3.0989
Sn(CN)2,3.0991
LaSi3N5,3.0992999999999995
Ca3TiAl2Si3O13F2,3.0993
Sn2P2O7,3.0993
MnSeO3,3.0996
Na6Fe3(PO4)4,3.0996999999999995
Na2Pr4Br9NO,3.0999
Ca4GdB3O10,3.0999
CaSbAsO5,3.1
Ge2RuC4(Cl3O2)2,3.1001
Cs3VF6,3.1001000000000003
GdBO3,3.1001000000000003
ZnCoF4,3.1002
Li8MnFe7(BO3)8,3.1002
LiMg30WO32,3.1002
LiFePO4,3.1003000000000003
K2MoSO3,3.1004
LiPWO4F,3.1005000000000003
HPbBrO,3.1006
KHoCoSi2O7,3.1006
KCdF3,3.1006
BaSrI4,3.1007
K2RbYI6,3.1008
Li3NiPCO7,3.1009
RbTm(MoO4)2,3.1009
Mg3Cr2(SiO4)3,3.101
Li8Mn3Fe5(BO3)8,3.101
Li4Mn5(P3O11)2,3.1011999999999995
Th(PO3)4,3.1013
Gd2(MoO4)3,3.1014
ZnSiPbO4,3.1014000000000004
SnH4(Cl2O)2,3.1015
ReH(CO)4,3.1016
SrMg6CoO8,3.1016
Na3H6Rh,3.1017
Rb3BiO3,3.1021
K2NaPrI6,3.1022000000000003
MgMn(SiO3)2,3.1024000000000003
Cs3Bi2Cl9,3.1025
Ho2TeO6,3.1026
Ni5Se4(ClO6)2,3.1026
SrCaGdSbO6,3.1028
AgH18C4S4BrN8O,3.103
HfNi5(BO5)2,3.1031000000000004
Ni3B7ClO13,3.1032
GaBr2,3.1033
Na3ScBr6,3.1033
YMo2O7F,3.1033
Hf3N2O3,3.1036
Na3SnPCO7,3.1036000000000006
RbEr(MoO4)2,3.1038
CaV(PO3)4,3.103800000000001
Li3Tb(NO3)6,3.104
ZnFe(SiO3)2,3.1041000000000003
Y3Si6N11,3.1042000000000005
NaHfSn(PO4)3,3.1044
Pr4Si4N7ClO3,3.1044000000000005
LiVF6,3.1046
Li3Mo2(PO4)3,3.1046
LiFePO4,3.1047
Li4AlCr3O8,3.1048
Li8Mn3Fe5(BO3)8,3.1048
Na2Ta8Si9(SO16)3,3.1049
Na4ZrSi3GeO12,3.1049999999999995
Li2MnFe(BO3)2,3.105
CsC,3.1051
Li8MnFe7(BO3)8,3.1051
Na10Sc7TaSi6(SO8)6,3.1051
SiPbO3,3.1053
Li2ZnGeO4,3.1053
Sr2TbNbO6,3.1053999999999995
Cs3In3(PO4)4,3.1055
Sr(H8O5)2,3.1055
Li2Te2O5,3.1057999999999995
LiSiBiO4,3.1058
Sm2CoTe2(SO7)2,3.1058
Lu3Sb5O12,3.1058000000000003
Na3Ca3In(SO4)6,3.1059
Na2HfSiSn(PO6)2,3.1059
CaMn2(PO4)2,3.106
KPrZnWO6,3.106
FeF3,3.1061
Cs2NaScBr6,3.1061
Li3Lu3(TeO6)2,3.1062
Na3SiGe4P5O24,3.1062000000000003
Na5Fe3F14,3.1062000000000003
Mg(IO3)2,3.1063
Ba2ZnGe2O7,3.1063
Na14Ca4Y4Si5S7O48,3.1063
Sr5Al11TlSi13O48,3.1064
VH24C8S2N2O9,3.1064
Na5Y3ZrSi3(SO8)3,3.1064
Na10Sc2Ta6Si11SO48,3.1064000000000003
NaMg4V3O12,3.1066000000000003
Ho(IO3)3,3.1066000000000003
Na6Ca2Zn2SiS5O24,3.1066000000000003
Na4HfZnSi2SO12,3.1068
RbVSeO5,3.1068
LiVF6,3.1068
MgTa2(FeO4)2,3.1068
Ba3(BO3)2,3.1069
NaMg3Si4O11F,3.107
RbHO,3.1071
SiS2,3.1072
CaTeO3,3.1072
CaNi2(PO4)2,3.1073000000000004
Sr4Al6SeO12,3.1075
Pr(IO3)3,3.1077000000000004
LiZnAsH2O5,3.108
Mg(GaO2)2,3.1080999999999994
CsTiNiOF5,3.1081
SrMg14CuO16,3.1081000000000003
Li3Dy(NO3)6,3.1081000000000003
Li4AlCr3O8,3.1083
KZrTl2OF5,3.1083
SnH4(NF)2,3.1084
BaCo2(PO4)2,3.1084
LiFeF3,3.1084
La3As2BrO7,3.1086
MgTa2(FeO4)2,3.1088
KBrO4,3.1089
WOF4,3.109
Ba2FeWO6,3.1091
Na2Gd2MgSi4(O6F)2,3.1091
K2ZnH4(I2O7)2,3.1091999999999995
Sn2As2H24C8S2O3,3.1092000000000004
Li3Y(NO3)6,3.1094
LiCaPrTeO6,3.1095
LiMnF3,3.1095
Na4P2H20O17,3.1095
Na3Ta3InSi3(PO8)3,3.1096
InSn2P(H3C)8,3.1096
Tm6WO12,3.1096000000000004
H4N2O3,3.11
Na3TaGa3P5SO24,3.1101
Na4TaAl3Si3(SO8)3,3.1101
Ba2AlCr2F11,3.1102000000000003
Li8Nb2O9,3.1104
H6CN8O5,3.1104
VSO4,3.1105
CsVO3,3.1105
Ba2LiTbSnO6,3.1105
SrMgFe2(SeO3)4,3.1105
AlH3,3.1107
Li10Zn3(GeO4)4,3.1107
Na3PH22(SO4)3,3.1109
Na8Ca3HfSi3(SO8)3,3.1109
H3CSN2,3.111
Li2Ni(CO3)2,3.1111
LiFePO4,3.1111
Ca4Mg3H14,3.1113
Li2SiNiO4,3.1114
NiH8C4(NO3)2,3.1114
SrCaLaSbO6,3.1114
Ni3Se4(ClO5)2,3.1114000000000006
MgTiAs2O7,3.1114999999999995
Ca2SiS4,3.1115
Rb2NaScBr6,3.1115
Cs(BCl)6,3.2738
BaBi2(B2O5)2,3.2738000000000005
K4Hf5O12,3.274
LiFeF4,3.274
CaSi4SnO10,3.2742
BaSrCaWO6,3.2742999999999998
Na8Y3TaSi5SO24,3.2743
NaY(MoO4)2,3.2744
Pr5As2ClO10,3.2745
Ba3Er4O9,3.2746
KMg6CrO8,3.2747999999999995
K3Al2(AsO4)3,3.2748
Mg10FeO11,3.274800000000001
KC,3.2749
CdSi3PH27C9I2,3.275
Na14Hf3Zn5Si6(SO8)6,3.275
K2MoHOF5,3.2753
RbLi2CdC2O6F,3.2753
Sb4PtC4(O2F11)2,3.2754
KMnH3(CO2)3,3.2756
Na3In(PO4)2,3.2757
Ca2Ta2FeO8,3.2757000000000005
Na9Ta5Zn(SiO4)9,3.2757000000000005
Rb2PrAgBr6,3.2758
Ba(C4N3)2,3.2759
Mg3FeO4,3.2759
C3N2,3.2759
LiSi4H27(C3O)3,3.276
BaWF7,3.276
MgFe(SiO3)2,3.2761
LiP3W2O13,3.2761
Zr3TiO8,3.2762
LiFePO4,3.2763
CsNO3,3.2764
Na5TaGa3SiP5O24,3.2764
Na3In2Ga2P3(SO8)3,3.2764999999999995
VH6C2ClO3,3.2765000000000004
La6NbGa11O28,3.2766
H4N2O3,3.2767
Sr2CaI6,3.2767
BaSr2I6,3.2767
CdPH6NO5,3.2768
Ca4I6O,3.2768
CaZr3P2(SO6)4,3.2769
CaH8(NO5)2,3.2769
Rb3GdCl6,3.2771
PC2S2N3,3.2771
CdH8C4(S2N3)2,3.2772
Hf(MoO4)2,3.2774
LiMn2F5,3.2776
Y2ZrWO8,3.2777
SiAgH16C7S3(OF)3,3.2777000000000003
NaZn4H18SClO16,3.2778
Ta2W2O11,3.2779
Na2YInP2SO12,3.2779
RbSm(MoO4)2,3.278
SrLaGa3O7,3.2781
Ca3SiO5,3.2782
K2Ni2(MoO4)3,3.2782
CaMg2Al6O12,3.2783
YCoF5,3.2783
Sr(H8O5)2,3.2783
MnAs2S4(NF6)4,3.2787
Er2Si4CN6,3.2788000000000004
Tb3Ga5O12,3.2791
Li7VGeO8,3.2791
Y2TiO5,3.2793
LiFe(SiO3)2,3.2793
BaLaCl5,3.2795
Na5Sc3TaSiP5O24,3.2796
NaPrZrSnO6,3.2797
KBa2V2ClO7,3.2799
SNClO,3.2802
BaSrI4,3.2802
LiGdO2,3.2804
BaCaSmSbO6,3.2804999999999995
Na14Ta5In3(SiO4)12,3.2805
Cs4Mg3H10,3.2805
Na3Pr(AsO4)2,3.2805
Li2PWCO7,3.2806999999999995
KRbMg14O15,3.2808
LiMnF3,3.2808
KLiDy2(MoO4)4,3.2809
MnH3C2N9O,3.281
RbHgC3(NO)3,3.2812
Sr2I2O,3.2812
In2Si2Pb2O9,3.2813
Ca4Si6Pb6Cl2O21,3.2813000000000003
Ca5Ta4O15,3.2814
MgSb2(H4O3)6,3.2815
Rb2MgH4,3.2815
Na4ScTa3Si4(PO12)2,3.2816
Cs2KYI6,3.2816
InRe2C10BrO10,3.2816
Sr2NiWO6,3.2817
Li3SbO3,3.2818
TaGaO4,3.2819
Na2AlInSi(SO6)2,3.282
Li3Co2P5O16,3.282
TaAlO4,3.2820000000000005
Dy(IO3)3,3.2820000000000005
Si10(H3C)19,3.2821
LiMg30BiO32,3.2822
NaPrYSbO6,3.2822
Hf3ZnSiS5O24,3.2822
KLiY2(MoO4)4,3.2822000000000005
Sr(AsO3)2,3.2824
Tl3PbCl5,3.2824000000000004
LiMnF3,3.2825
NaMn6P7O24,3.2825
Ca4NbGaO8,3.2825999999999995
TeC6(ClF7)2,3.2826
Na5H7(Se2O9)2,3.2826
LiMnPO4,3.2826000000000004
Tl2MoO4,3.2827
KRb2AlBr6,3.283
LiNiPO4,3.2832000000000003
Zn2B2PbO6,3.2832000000000003
Mg(NO3)2,3.2833
BiP3Pb4O13,3.2834
Rb2ZrO3,3.2835
K2CO3,3.2835
Ho(NO3)3,3.2838
ZnSiO3,3.2839
Na5LiMn2P2(CO7)2,3.2839
KGaAs3H7O13,3.2843
Li3NiPCO7,3.2843
CsBrF4,3.2844
Nb2ZnO6,3.2845
NiH10(SeO5)2,3.2845
LiFeF3,3.2845
Sr2Re4H16C3(N2O7)3,3.2845000000000004
H2CO2,3.2846
Rb2ScAgF6,3.2846
Sr2VBrO4,3.2847
Sc2Ti2O7,3.2847000000000004
CsBa2Cr2F11,3.2848
Na3Sr4Cr5F26,3.2848
Ho2TiO5,3.2848999999999995
Na2CoH8(SO6)2,3.2849
LiC,3.2849
Bi3O2F5,3.285
RbGaBr4,3.285
La3Lu2(GaO4)3,3.2850999999999995
NbTl(BO3)2,3.2851
VF5,3.2852999999999994
HfZrO4,3.2854
SiH14C4S2(N4F3)2,3.2855
Na3SbF6,3.2855
Zr4Ni(PO4)6,3.2858
Mg4FeO5,3.2858
ZnH14C2N10(ClO3)2,3.2858
CsCdF3,3.2859
Na3AlSiSn(PO6)2,3.2859
Li2Si2NiO6,3.2862
Ba4Ta2O9,3.2862
LiMnPO4,3.2862
LiNi4(PO4)3,3.2862
Li2Fe2Si8O19,3.2863
DyTl(MoO4)2,3.2866
SrLiAlO3,3.2866000000000004
Na3AsH24SeO15,3.2867
Er2Mo4O15,3.2867
Rb2CO3,3.2867
TbTl(MoO4)2,3.2868
K2Pb3C3O9F2,3.2869
Rb6LiPr11Se12(Cl4O9)4,3.2871
LiFePO4,3.2872
KNO3,3.2872
Sm2Te4O11,3.2872
SeO2,3.2874
LiSnPO4,3.2874
NaLi5Mn2P2(CO7)2,3.2875
Rb2H4Pt,3.2877
LaPr3Al4O12,3.2879000000000005
LiMnPO4,3.288
Li2Mg3Ti6O16,3.288
Er2Hf2O7,3.288
Li2CoH8(SO6)2,3.2881
CaAlH5,3.2882
Na2Ca2P2O7F2,3.2883000000000004
Na6Zr2Zn6SiS11O48,3.2884
Gd3Sc2Al3O12,3.2885000000000004
La2TiO5,3.2886
Hf3N2O3,3.2886
Na3InCl6,3.2887
LaIO,3.2887000000000004
Na4In2Si(PO6)2,3.2889
Te3P2O11,3.289
NaP3(PbO3)4,3.2891
Hf3N2O3,3.2891000000000004
Na10Sc4Ga4Si5S7O48,3.2892
MgFe2W2(ClO4)2,3.2892
SrCaAl2(SiN3)2,3.2892
LiFePO4,3.2893000000000003
AsN2F7,3.2895
Rb2Te(WO4)3,3.2896
KCd3H8Cl7O4,3.2896
CaYAlO4,3.2897
FeH18C6N6O13,3.2897
Na6Ca4SiS5O24,3.2897000000000003
TlBi2Cl7,3.2897000000000003
SmCl3,3.2898
BaCaI4,3.2901
Cs2Ti(Si2O5)3,3.2902
Na6La2Y2Si3(SO8)3,3.2902000000000005
La2WO6,3.2903
Na6Sc4Al4Si3(S3O16)3,3.2904
Li3CoN2,3.2905
TcH4NO4,3.2906
WN3F5,3.2908
Na8Sc3TaSi4(PO12)2,3.2909
LiFeF3,3.2909
Mg2VBiO6,3.291
HoTl(MoO4)2,3.291
Na4Hf2Ta2Si5SO24,3.2910000000000004
GdPO4,3.2911
KEr(WO4)2,3.2911
SrH2I2O7,3.2912
Ba2CaWO6,3.2912
Ca2Ta2MnO8,3.2913
ZnMoO4,3.2913
ZnH4(IO4)2,3.291300000000001
K2LiMnPCO7,3.2914
SrMg30CdO32,3.2915
Ca3Lu2(GeO4)3,3.2916
Li2MgTi3O8,3.2916
K3Na(SeO4)2,3.2916
K3Lu(BO3)2,3.2916000000000003
LiNiPO4,3.2917
Ba2CaI6,3.2918000000000003
Li2SnP2O7,3.2918000000000003
Nd2Te4O11,3.2920000000000003
NaLi5Mn2P2(CO7)2,3.2920000000000003
Rb6LiNd11Se12(Cl4O9)4,3.2922
Na4HfSi3SnO12,3.2924
La7Nb3(W2O15)2,3.2924
Na3Li3Mn2P2(CO7)2,3.2924
CaGeO3,3.2925
Na14Y4Al4Si7S5O48,3.2926
NaLi5Mn2P2(CO7)2,3.2926
SrSe2O5,3.2926
Na2LiMnPCO7,3.2927
LiBiP2O7,3.2927
SrLiPrTeO6,3.2928
Li4Ni5(P3O11)2,3.2929
NaTaWO6,3.2929
Na14Ta5Al3(SiO4)12,3.293
Na21Ca10Ta2P15(SO24)3,3.293
Sm2Hf2(MoO4)7,3.2931
Na3Li3Mn2P2(CO7)2,3.2932
TbGd3(PO4)4,3.2932
Ca(AlH4)2,3.2932
Li2SnP2O7,3.2933
Rb3ZnH5,3.2933000000000003
Na10Ta4Si11Sn4SO48,3.2934
Ca2Al2Si6Sn(H3O11)2,3.2938
Na3B6NO13,3.2938
LiTaWO6,3.2939
NaLi5Mn2P2(CO7)2,3.2939
P2Pb3O8,3.294
K2YAgBr6,3.2941
Dy2TiO5,3.2941000000000003
Mn2P2O7,3.2942
Si17NO34,3.2944
Sr3Ta4(O6F)2,3.2944
AgH9C2(NO)2,3.2944
NdH4C3O8,3.2944000000000004
Sr3CaO4,3.2945
Mg3NiO4,3.2945
CrP2H13(NO5)2,3.2945
Na3La(AsO4)2,3.2946
LiFeF3,3.2949
LiMn2F5,3.2949
LiSb2P5O16,3.2951
Li4Co(PO4)2,3.2951
Li2SiNiO4,3.2952
MgAl2O4,3.2953
AgH2C2N3O,3.2954
Li4Fe3(OF3)2,3.2956
Sc2(CN2)3,3.2957
Li8MnFe7(BO3)8,3.2957
Rb3GdV2O8,3.2957
Na4Mn3P4O15,3.2957999999999994
Ba3NbGa3(SiO7)2,3.2958
Li2Mn2(SiO3)3,3.296
Ba3Te3(BrO4)2,3.2962
Er2TiO5,3.2962
NaSr3NbO6,3.2962
LiYbSi6H54(C6N)3,3.2962
Tm2Mo4O15,3.2963
Na15Mg10Ta2P9(SO8)9,3.2964
NaLi5Mn2P2(CO7)2,3.2964
As3Pb5O12F,3.2964
SnH8(ClO)4,3.2964
Bi3B5O12,3.2964
Zn2Te3O8,3.2965
KBaCr2(PO4)3,3.2965
CsNO3,3.2965
Sr3MgTa2O9,3.2966
Ca3WO6,3.2967
Li2VOF5,3.2968
LiBiB2O5,3.2969
P2H12N8O3,3.297
Gd2P4O13,3.297
Na3LaIn(PO4)3,3.2970999999999995
CsThMo2ClO8,3.2972
Cs2HfBr6,3.2973
AgB11H6CBr6,3.2973
TaSi2H35(C3N)4,3.2973
Rb2ScAgCl6,3.2973
Tm(NO3)3,3.2974
TlCdCl3,3.2976
BaMg30ZnO32,3.2977
LaNbTeO6,3.2978
CsK2AlBr6,3.2978
NaHO,3.2982
Zn2H10N12O5,3.2982
TbGaGe2O7,3.2982000000000005
Ca3Si3(BiO6)2,3.2982000000000005
Nd5As2ClO10,3.2983
Li8MnFe7(BO3)8,3.2986999999999997
CsNb(BO3)2,3.2987
LiCrP2O7,3.2987
Na3Ta2Al2SiP5O24,3.2989
RbHSO2,3.2989
Ca2Ni2SF6,3.2989
Li8MnFe7(BO3)8,3.299
LiCoPO4,3.2991
CaTeO3,3.299300000000001
NaSrHfSbO6,3.2996000000000003
HgH20C6(NCl2)2,3.2998000000000003
Na4Zn2Si(SO6)2,3.3002
LiFePO4,3.3005
ZrSCl6O,3.3005
VBiO4,3.3005000000000004
Li2Ge2O5,3.3005000000000004
Na4TaGa3(PO4)6,3.3005999999999998
LaBrO2,3.3008
La8Al7InO24,3.3008000000000006
Tb2TiO5,3.3008999999999995
BaLaGa3O7,3.3009
H12C4N2O9,3.3009000000000004
LiAs2H3O7,3.301
NaGdGeO4,3.3011000000000004
RbScO2,3.3013
SrMn2(PO4)2,3.3013000000000003
Na3Mg2In2PS5O24,3.3014
SrBiClO2,3.3015
CdC2(SN)2,3.3016
Cr(PO3)3,3.3019
Na2Co2(B4O7)3,3.3019
Mn5H8S3O16,3.302
BeAlH5,3.3021000000000003
KSmH4(N2O7)2,3.3023
Li7TaN4,3.3024
Ba2La2Ni(WO6)2,3.3024
Ba2YBr7,3.3024000000000004
Sr2CaI6,3.3025
RbB3Te2O9,3.3025
Rb2CaH4,3.3025
Te2SO7,3.3025
ScNbO4,3.3026
Li2W2O7,3.3027
LuTa3O9,3.3027
Na3H6Ir,3.3028000000000004
NaNiBO3,3.3029
Cs2Mn2(MoO4)3,3.303
CaZn2(H5O4)2,3.303
Li2FeF4,3.3033
Mn4GeP4(H6O11)2,3.3033
Na3Li3Mn2P2(CO7)2,3.3033
NaPrDySbO6,3.3035
K4TiSn3(PO5)4,3.3035
Be2CoH20N2(O3F4)2,3.3035
LiB3H18N5,3.3036
Lu2Mo4O15,3.3038
SnAsF7,3.3038
Na3NiAsCO7,3.304
Mg6FeSnO8,3.3042
LiB(CO2)4,3.3042
Ba2CaI6,3.3042
Na8HfMg3Si3(SO8)3,3.3045
Rb2MnF6,3.3045
HPbClO,3.3046
TaInP2SO12,3.3046
Dy3Ga5O12,3.3047
LiSbP2O7,3.3047000000000004
Na4Ca2Si(SO6)2,3.3048
LiFeF3,3.3048
MgWO4,3.3049
Na7Sc2Si3Sn2(PO8)3,3.3052
H9C2N7O6,3.3053
Ba2PrTaO6,3.3056
Na3AlSiSn(PO6)2,3.3057
Nb2P4O15,3.306
AgCS2(O2F)3,3.306
DyGaGe2O7,3.3061
BaCaGdSbO6,3.3061
Na3Ta5ZnSi3(PO6)6,3.3062
Rb2NdAgBr6,3.3063
Li7NbN4,3.3064
LiFeF4,3.3067
Mg3V2O8,3.3068
NdH12(NO5)3,3.3069
Na2Sn(HO)6,3.307
LiMg2H7Os,3.3071
HSN,3.3071999999999995
Re2N2ClF9,3.3072
NaY(IO3)4,3.3072000000000004
Li2Fe2(SiO3)3,3.3073
Li2Bi2P2O9,3.3073
La5Sb4(O4F)3,3.3074
Nd2Te2W2O13,3.3075
K3AsO4,3.3075
Ba2GdTaO6,3.3075999999999994
SrCaTbSbO6,3.3076000000000003
Rb2Y(NO3)5,3.3079
K3ZnNCl4O3,3.3079
B10H13,3.3079
NaSr3GdP3O12F,3.3081
Na14Y3Ta5(SiO4)12,3.3083
Tb(IO3)3,3.3084
K2Mn3H6S3O16,3.3084
SbOF,3.3084
PC2S2N3,3.3084
Cs2NdAgF6,3.3086
Na5LiMn2P2(CO7)2,3.3086
Na3MgTa5Si3(PO6)6,3.3086
BiOF,3.3088
CaSi4NiO10,3.3088
Na8TaIn3Si4(PO12)2,3.3088
Sr3WO6,3.3088000000000006
Sm2TiO5,3.3088999999999995
RbNbO3,3.3093
Na9Cr2(H9O7)3,3.3093
KCaFe2F9,3.3095
Ba2PaInO6,3.3095000000000003
GePb2(SeO3)4,3.3096
RbLu(WO4)2,3.3097
NaCa3AlFe3(SiO3)8,3.3099
Rb2HBrO,3.3099
Na3ZrSi2SnPO12,3.3099000000000003
K2Hg3C8(NO)8,3.3100000000000005
Ho2Ge2O7,3.3100000000000005
Na2Zr3ZnP4(SO12)2,3.3102
CaAlH5,3.3102
Nd2TeMo6H38O43,3.3103
CoP3H16N4O11,3.3103
SrLaCl5,3.3104
Rb2YAgBr6,3.3104
CaMn2P2(H2O5)2,3.3107000000000006
Pr3NF6,3.3108
TaClF8,3.3108
RbNd(MoO4)2,3.3109
Na4ZrZn3SiS5O24,3.311
B5Pb2IO9,3.3111
Cd(CO2)2,3.3113
La3Ga5SnO14,3.3113999999999995
KCaHfSbO6,3.3114
Rb2PH6(SO)3,3.3114
Ca(AsO3)2,3.3115
Ca8Zn4Si3Ge5O28,3.3116
NaNiPO4,3.3116000000000003
Cd4Te6Cl6O13,3.3117
LiMn4(PO4)3,3.3117
BaBi12Mo5O34,3.3118000000000003
LiBiB2O5,3.3119
Ba3Na2(CN2)4,3.3120000000000003
Cd3H14S3(NO8)2,3.3120000000000003
NaCaH3,3.3120000000000003
LiFeF3,3.3121
BaLa2WO7,3.3121
CsRb2ScBr6,3.3122
LiMnPO4,3.3122000000000003
SnH14C4(NCl2)2,3.3127
KSm(MoO4)2,3.3128
Rb2MgH4,3.313
Na6Si2O7,3.313
LiFeF3,3.3132
Li2CoP2O7,3.3133
Cs2InGaF6,3.3133
NaHO,3.3134
CaSnN2,3.3135000000000003
KPO3,3.3136
LiMg4H13Os2,3.3137
Cs3ScBr6,3.3137
Ba2LiTbSnO6,3.3137000000000003
Nd2TiO5,3.3138
AgH24C9S3N6ClO4,3.3139
LiMnPO4,3.314
As2Pb3O8,3.3141000000000003
NaZr2Ta2SiP5O24,3.3141000000000003
Na3HfSi2GePO12,3.3141000000000003
BeGeN2,3.3143
LiMnPO4,3.3144
CaAlH5,3.3146
KLiTb2(MoO4)4,3.3146000000000004
Bi2(SO4)3,3.3147
Gd2Be2SiO7,3.3147999999999995
Be3Si3(BiO6)2,3.3148
LiBi4B3O11,3.3149
Sr2CdWO6,3.3149
Na2Zn11(MoO4)12,3.3151
K2Li3GaO4,3.3151
NaTaTiSi2SO12,3.3152
Na5La2Zn2P3(SO8)3,3.3153
Na15Ta10Zn2Si15(PO24)3,3.3154
Zn3Fe9(PO4)8,3.315500000000001
Dy2Mo4O15,3.3157
Na5ZrSc3Si3(SO8)3,3.3157
KNdHfSnO6,3.3158
BaAl4(SbO6)2,3.3158000000000003
Tl2B4O7,3.3162000000000003
Rb3BiBr6,3.3162000000000003
BaCaHfZrO6,3.3163
Ba2NdTaO6,3.3164
HgH4C2S2(O4F3)2,3.3164
Na4La2Zn2SiS5O24,3.3167000000000004
K3AlBr6,3.3168
MgFeSiO4,3.3169
Na4H20RuS4(NO9)2,3.3169
FePH6NO5,3.3169000000000004
Na5LiMn2P2(CO7)2,3.3174
MnH2Cl2O,3.3176
BaH4(CO3)2,3.3178
Li3Sb2(PO4)3,3.3178
K3Mo4H6O16F,3.3179
LiMnHSO5,3.3182
LiP3W2O13,3.3183
Ba2H2C4O9,3.3183
Cs3TlF6,3.3184
BaY2(MoO4)4,3.3185
Y2Mo4O15,3.3185
Mn2P2C12S(O2F3)4,3.3186
Ga(IO3)3,3.3187
CaCoBP2H5O11,3.3187000000000006
Al10Si2O19,3.3187999999999995
B9H11,3.319
Na7AlSn11(PO4)18,3.319
SmIO,3.3193
Na8Zr3ZnSi5SO24,3.3193
LiFeP3H8O13,3.3193
AsCF3,3.3193
LiFePO4,3.3194
Y(IO3)3,3.3195
CsNaC2,3.3196
CBr3F,3.3196000000000003
Li3Sb2(PO4)3,3.3197
Sr2PrSbO6,3.3198
Ba3Y4O9,3.3201
Mg30ZnCdO32,3.3201
MgTaBiO5,3.3202000000000003
Na14La4Mg4Si5S7O48,3.3203
Ca2YNbO6,3.3203