formula,band_gap (MP)
Li2VP3O10,3.4028
BaCaNbInO6,3.4029
MgAl6O10,3.4029
SrAlH5,3.4032
CsBC3NO2F9,3.4032
NaZnH2C3O7,3.4034
Li4Mn3Fe(PO4)4,3.4034
Na3LaZnP2SO12,3.4036
Sr2Al3FeO8,3.4037
NaBi(WO4)2,3.4038
Sr(H8O5)2,3.4038
Mg6MnNiO8,3.4039
B2AsCl2,3.4041
Ho2(SeO3)3,3.4041
CaAsH5O6,3.4041
K2MgMn2P6(HO10)2,3.4043
Ba3NaTaO6,3.4044
SmTaO4,3.4044
Na5Ca2Zr2P5SO24,3.4044
In4(P2O7)3,3.4044000000000003
KPH5C2S2(NO)3,3.4045
Fe3B7IO13,3.4046000000000003
CdSeO3,3.4047
MgAl4(HO)12,3.4048
KNaPrNbO5,3.4049
BaSrCaWO6,3.405
Li2MnFe(PO4)2,3.4051
SrMgSn(PO4)2,3.4052
Ga2P2H9NO11,3.4052
RbSnF3,3.4052999999999995
MnH12N2(Cl2O)2,3.4053
K3NdH6(C2O5)3,3.4054
Na2LaH2C5O11,3.4055000000000004
Na4Zr2Ta2Si5SO24,3.4056
CdH8C4(BrN4)2,3.4057000000000004
FePb2(CN)6,3.4058
Li2FeSiO4,3.4058999999999995
NaNd(MoO4)2,3.4059
B5Pb2ClO9,3.406
Zn(NO3)2,3.406
CoP2H10(NO4)2,3.4061
Sc2(TeO3)3,3.4061000000000003
LiFePO4,3.4061000000000003
B11H10SI,3.4062
Mg30FeNiO32,3.4062
Ba2TmTaO6,3.4065000000000003
RbHo(WO4)2,3.4066000000000005
NaTaO3,3.4067
MgH2SeO5,3.4068
CaSeO4,3.4068000000000005
LiCa2Mn2Si5HO15,3.4069000000000003
Be3Fe4Si3SO12,3.4070000000000005
SbSO2F5,3.4071
Li2Fe3(P2O7)2,3.4071
Na6Ta3Ga(SiO4)6,3.4071
LiSnPO4,3.4071
LaB5H5NO14,3.4072
TbGd(PO4)2,3.4073
LiMo4P7O24,3.4073
H6CSN4,3.4076
YIO,3.4078000000000004
Na6Y3TaSi2(PO6)4,3.4078000000000004
BaWO4,3.4079000000000006
LiMnF3,3.4080000000000004
LiMn(PO3)3,3.4083
Dy3TaO7,3.4083
NaHf2Ta2SiP5O24,3.4083
Rb3Pr2(NO3)9,3.4083
Dy2WO6,3.4083
PrSi3N5,3.408499999999999
Li2Si2NiO6,3.4086
K3YV2O8,3.4086
Ho6WO12,3.4086
LiMnPO4,3.4087
Y2Zr2SiS5O24,3.4088
Ca2HfZrO6,3.4088000000000003
Ba2LuTaO6,3.4089
KFePO4,3.4089
K2TeH6SO10,3.4090000000000003
NaMg6SbO8,3.4090000000000007
K2RbDyV2O8,3.4091
LiFePO4,3.4092
K2Zr(BO3)2,3.4092
Ba6Ca11I34,3.4093
Ba5Y8Zn4O21,3.4094999999999995
NaCO2,3.4095
Cs4PbI6,3.4095
AsC2S2(OF3)3,3.4096
LiMnPO4,3.4096
Al3GaN4,3.4096
AgH8C4S3(OF)3,3.4096
LiNiPO4,3.4096999999999995
Li4MnFe3(PO4)4,3.4096999999999995
Li2ZnFe(PO4)2,3.4097000000000004
Al2Ge2O7,3.4098
Sr2SmSbO6,3.4098
LiFeF3,3.4099000000000004
NaAs3(PbO3)4,3.4100999999999995
Li2Fe(CO3)2,3.4101
Nd4CdSi3O13,3.4103
Na3Mg3ZrPS5O24,3.4104
Cs2Al(NO3)5,3.4104
Sr2ZnWO6,3.4104000000000005
Fe2Co4Ge2(CO)21,3.4105
NaHSeO4,3.4107000000000003
BaAl2Sb2O7,3.4109000000000003
Li2Si6Ni3O16,3.411
Na6LaTa3(SiO4)6,3.4110000000000005
RbSi2N3,3.4111
V2Pb(OF4)2,3.4112
In(IO3)3,3.4113
RbLiNd2(MoO4)4,3.4113
NaPH3C2N3O4,3.4113
CsAlAs3H5O12,3.4114
LiMnPO4,3.4115
In2(MoO4)3,3.4116
K2Ti(Si2O5)3,3.4116
Sr3Ta2ZnO9,3.4116000000000004
H8C3N2O,3.4117
Na14La4Y4Si7S5O48,3.4117000000000006
Mg2Ta2NiO8,3.4118000000000004
MnGaH4O2F5,3.4119
AlCrMo6(H19O20)2,3.412
CaH3NO5,3.4121
K2TiO3,3.4121
RbY(WO4)2,3.4123
Nd3TaO7,3.4123
H7C2SN4ClO4,3.4124
Na4La2Si2SO12,3.4126
K3Sn2S3BrO12,3.4126000000000003
Na17Al5O16,3.4127
Na4Ga2Si2SO12,3.4128
LiFe4(PO4)3,3.4128
BaNaAlMo6(H13O17)2,3.4128
Cs2RbBiBr6,3.4129
MgH20C4(N5O6)2,3.4129
SrTeO3,3.4131
Na10TaAl7(PO4)12,3.4131
Ba2NdAlO5,3.4133000000000004
Zn4B6O13,3.4134
HNO,3.4135
MgAl4(HO)12,3.4136
AlSiCN,3.4136
Li2FeF5,3.4141000000000004
KH3(SeO4)2,3.4141000000000004
SrMgO2,3.4142
LaH16N7O19,3.4143
Na4Sn3F10,3.4143
RbTb(WO4)2,3.4143000000000003
CsTcO4,3.4144
NaCa2GeO4F,3.4144
Dy(NO3)3,3.4144
Na2ZrGeO5,3.4144000000000005
NaPrHfSnO6,3.4145
Ca(AlS2)2,3.4146
KSm(SeO4)2,3.4146
LiFe2P2HO8,3.4146
SrCaHfZrO6,3.4147
K2YTlBr6,3.4148
Na7La2Ga2SiP5O24,3.4148
ZnCdC4(SN)4,3.4148
LiP4WO12,3.4149000000000003
Na2Sr6ZnFe6F34,3.4149000000000003
Li4FeSi2O7,3.415
Tm3TaO7,3.415
MnH4(BrO)2,3.4152
BaTeW2O9,3.4154
LiMn10(PO4)7,3.4155
Ba2HoSbO6,3.4155
Li2Mg11(WO4)12,3.4156
CsTb(WO4)2,3.4158000000000004
LiFePO4,3.4159
Rb3BiBr6,3.4159
K4Ba(GeO3)3,3.4159
SrZrO3,3.4160000000000004
Sr3V2O8,3.4161
DyWClO4,3.4164
RbPbF3,3.4164
Na2NiH6C4N4O3,3.4164000000000003
KLiMnP3HO10,3.4165
Na4Al3FeO8,3.4167
Na4TeMo6H40(NO20)2,3.4168000000000003
K3TmV2O8,3.4169
Na6Ca7Zr(SO4)12,3.4169
Sr2CdWO6,3.4169000000000005
Li3BN2,3.417
Na2Be(GeO3)2,3.4171
H10C2N2O5,3.4173
Li2Mn(SiO3)2,3.4173000000000004
KHCO3,3.4174
Na4Ca2La2SiS5O24,3.4177
Na7In2Ga2SiP5O24,3.4177000000000004
K2RbErV2O8,3.4178
Sr(IO3)2,3.4178
SrGeO3,3.4179
NaZr2FeF11,3.4179
LiMn2P2HO8,3.418
K2RbBiBr6,3.4181
Na15MgTa11(SiO4)18,3.4182
CsGd(PO3)4,3.4182999999999995
K3Sm(BO3)2,3.4183
La2W2O9,3.4184
Pr3TaO7,3.4185
Ni3(PO4)2,3.4185000000000003
CsY(WO4)2,3.4186000000000005
Cs2Mo3O10,3.4187000000000003
LiMnF3,3.4187000000000003
Li3Ni5OF11,3.4189000000000003
Na7Bi3P12(Pb5O24)2,3.4189000000000003
Mg14VCrO16,3.4189000000000007
K2Na4Ge2O7,3.419
MnH7C3NO6,3.4191
KMnF3,3.4193
SeO2,3.4194
Na7Bi3P12(Pb5O24)2,3.4195
Th(TeO3)2,3.4195
Ba6Nb3HO14,3.4195
Zr3TlF15,3.4196
CaSeO4,3.42
Lu2GeO5,3.42
Li3Si2BiO7,3.4200000000000004
LiSiBiO4,3.4201
La3Nd(GaO3)4,3.4201000000000006
Si2Te(H3C)6,3.4202
CrGaMo6(H19O20)2,3.4204
CaN6,3.4205
Na3LaZrSi(PO6)2,3.4205999999999994
MgAlH5,3.4207
SrTeO3,3.4208000000000003
K3Bi5(AsO4)6,3.4208000000000003
Lu2GeO5,3.4209000000000005
TbNbO4,3.4213
Sr2ScTaO6,3.4213
LiMnF3,3.4213
NaCaH6Ir,3.4213
Ba6La2Ga4O15,3.4214
Na7Hf2Si5Ge2PO24,3.4214
Zn3(PO4)2,3.4214
CoMoH24N6ClO7,3.4214
Th2Ta2O9,3.4214999999999995
SrNd2O4,3.4216
La2NCl3,3.4216
K3ErV2O8,3.4218
CsH2CO3,3.422
ZnFeP2O7,3.422
Cs3BiBr6,3.4221000000000004
CaZnSiH2O5,3.4221000000000004
GdAsO4,3.4222
Li2Ti2O5,3.4224
Sr2LaSbO6,3.4224
Na3ZrGaSi2SO12,3.4226
Li2FeSi3O8,3.4226
Rb2CrF5,3.4227
BaY3Cl11,3.4228
Cd4NiH20(ClO)10,3.4228
H5ClO6,3.4228
BaCaI4,3.4231
Na10Ca3Zr5(PO4)12,3.4232
Na7Zn2In2P5SO24,3.4232
Na2Li3GaO4,3.4232
K8Th(MoO4)6,3.4234
CsMoO2F3,3.4234
Nb2CdO6,3.4237
SiCCl3,3.4239
K2RbPrV2O8,3.4240000000000004
NaMg30BiO32,3.4241
Sr3NbGa3(SiO7)2,3.4242
Sr2HfZrO6,3.4242
K2Se2O5,3.4243
Ga2PbO4,3.4243
VH10SO10,3.4244000000000003
Ca9La5Cl33,3.4245
Cs2KBiBr6,3.4246
SrFe2(PO4)2,3.4247
CsFeF3,3.4247
K2TiSi3(HO5)2,3.4247
CoAg3(CN)6,3.4249
Mn2H2SO5,3.4249
Na2InGaP2SO12,3.4249
Sn(NO3)4,3.4252
Ba5Y3Br19,3.4253
Ba3SrNb2O9,3.4254999999999995
Li4Ni7(PO4)6,3.4255
TbWClO4,3.4255
Bi(BO2)3,3.4257
FeH12C2N2F5,3.4257
Li2Si2NiO6,3.4258
MgZr3P2(SO6)4,3.4259
RbNdO2,3.4259999999999997
TaAlP2SO12,3.426
K3HoV2O8,3.4261
Rb10Si6O17,3.4261
C2N2O5,3.4261
Li4Fe7(PO4)6,3.4262
LiFeF4,3.4262
Sr3Se3(ClO4)2,3.4263
Sr(H8O5)2,3.4263000000000003
AgP2H8SN7O2,3.4266
As3Pb2ClO6,3.4266999999999994
Na3In2(PO4)3,3.4267000000000003
NaZnSiHO4,3.4269
Y4Ga2O9,3.427
Rb4Mg3H10,3.4271
MoH8(NO2)2,3.4272
LiNi4(PO4)3,3.4272
NaMgZrP(SO6)2,3.4274
Na7CaY3Si3(SO8)3,3.4274
BaBi6(PO5)4,3.4275999999999995
Y(WF5)3,3.4277
Na4CaMgSi(SO6)2,3.4277
Nd2Ge2O7,3.4278000000000004
Na10Mg3Zr5(PO4)12,3.4278000000000004
Na2LiMnPCO7,3.428
TmNbO4,3.428
Na10La4Mg4Si3(S3O16)3,3.4281
Na2Ca5Hf3(SO4)12,3.4282
NaTaGa(PO4)3,3.4283
ZnH20C4(N5O6)2,3.4283
Li4Fe7(PO4)6,3.4284
Te2MoW3(Se2S)2,3.4284
KLi2Sb(PO4)2,3.4286000000000003
Sr2MgWO6,3.4286000000000003
Rb2NiH12(SeO7)2,3.4289
LiNd(MoO4)2,3.4291
Ca5(Ga3O7)2,3.4292
Li5TaO5,3.4293000000000005
Na6Hf8Si7S5O48,3.4294
Li2Mn3F8,3.4296
Na3Zn3In(SO4)6,3.4296
PrBr3,3.4296
SrCaNdSbO6,3.4296
K2RbNdV2O8,3.4296
LiGd(PO3)4,3.4298
MgMn3(P2O7)2,3.4299
Na3P3HO9,3.43
BaGePbO4,3.4303
LiSn2(PO4)3,3.4303
Sn2PH32C11N3Cl2O,3.4304
Sr2NbInO6,3.4305000000000003
ReO2F3,3.4309000000000003
Na10La4Hf4Si7S5O48,3.431
Li2FePO4F,3.431
KNbSi2O7,3.431
Cs7Fe4F15,3.431
Sr2CaI6,3.4313
H13Se2N3O8,3.4313
H3CO3,3.4314
CS2,3.4316
CaTb2O4,3.4317
NaLaZrP2SO12,3.4317
Ba6Gd2Al4O15,3.4319
Na2LiMnPCO7,3.4319
KCaInWO6,3.432
NaC2N3,3.4321
Ba2SrI6,3.4322000000000004
BaMg30CdO32,3.4322000000000004
Na6Sn2B4SO16,3.4323
Ba2ErV3O11,3.4323
ZnSi3GeH35C13BrO,3.4324000000000003
Na3Ca3ZrPS5O24,3.4326000000000003
Na3ZrInSi2SO12,3.4327000000000005
SrAlSiN3,3.432899999999999
C2SeN2,3.4329
CsHO,3.4329
Ca2Se3O8,3.433
Rb2H2C2O5,3.433
KH,3.4331
La2Nd(GaO3)3,3.4333
BaGa4O7,3.4333
TaGaP2SO12,3.4333
Cs3AlBr6,3.4333
B9Pb8O21F,3.4333000000000005
RbCaI3,3.4334
ZnCrH28C6N12Cl5O8,3.4335
Ba2V2ZnO8,3.4336
KDy(MoO4)2,3.4338
LiGa(MoO4)2,3.4339
MnPb(SO4)2,3.434
Ba8Sr3Ca(WO6)4,3.434
Li4Si2NiO7,3.4342
Sr3Ga3B4HO14,3.4342
ThH4(C2O5)2,3.4342
Na6La4Y4Si3(S3O16)3,3.4343000000000004
Zn2PH2CO7,3.4344
TlNiF3,3.4347
K3BiBr6,3.4347
LiMnPO4,3.4347
LiH2N,3.4348
Al2Tl3(PO4)3,3.4349
CaFe2(PO4)2,3.4349000000000003
LiFePO4,3.4349000000000003
Tm2GeO5,3.435
Li2Ti2O5,3.4351
CsHo(WO4)2,3.4351000000000003
K5Nb4O12F,3.4353
Na4YGaSi(PO6)2,3.4353
RbHCO3,3.4353
BaSrTbSbO6,3.4354
MoF3,3.4355
HfZrO4,3.4356
Sm(AlBr4)3,3.4356
Lu(IO3)3,3.4357
Sr3WO6,3.4362
SiB11H10C4F11,3.4362
Al2Tl3(PO4)3,3.4363
LiMnPO4,3.4363
Na8Y3TaSi4(PO12)2,3.4363
SrSc2O4,3.4364
BaSrGdSbO6,3.4364
Ca3NbGa3(SiO7)2,3.4364000000000003
CdH14C8(NO3)2,3.4366000000000003
KTcO4,3.1886
K2RbGdV2O8,3.1889000000000003
SrLaCl5,3.1891000000000003
Cr3B7O13F,3.1891000000000003
BaCaPrSbO6,3.1894
CdTeMoO6,3.1894
Rb4CdBr6,3.1899
CaHo2(GeO3)4,3.19
K4Zr5O12,3.1900000000000004
Na14La4Al4Si7S5O48,3.1904
Na3LaGa(PO4)3,3.1905
NaNi2Mo2H3O10,3.1907
CaEr2(GeO3)4,3.1907
MgCrF4,3.1907999999999994
Ge2As2O7,3.1908000000000003
Ba2CaWO6,3.191
Mg30ZnCO32,3.1912
MoPH3O7,3.1912
CaSmGa3O7,3.1912000000000003
LiFePO4,3.1914
CsKTeH6SO10,3.1915
BaLa2ZnO5,3.1916
Mo2H18C6NClO7,3.1916
Li2MnSiO4,3.1916
Na2Be(GeO3)2,3.1917
CeBeSiHO5,3.1917
KRb2ScBr6,3.1918
NaFe2(Si2O5)3,3.1918999999999995
Li2MnPHO5,3.1918999999999995
CoH8N2(OF2)2,3.1919000000000004
NaTiPO5,3.1919000000000004
NaMg4(AsO4)3,3.1922
Zn2TeBr2O3,3.1923
LiVF6,3.1926999999999994
LiFePO4,3.1927000000000003
Na2Hf4Si3(SO8)3,3.1928
BaZnWF7,3.1929
Se(OF)2,3.1929
LuTa7O19,3.1931
Na3ScTaSi2PO12,3.1932000000000005
Rb2ZnCl3,3.1934
Li4CrP6(H4O11)2,3.1935
K10Zr3Mn(MoO4)12,3.1937
Na14Hf4Si11Ge4SO48,3.1937
Na2TaGaSi(PO6)2,3.1937
Bi6Se3(BrO7)2,3.1938
LiTaWO6,3.1938
Sb2H24C6(NCl3)3,3.1939
Sr4Nd3Ta2Al5O21,3.194
Na2TaGaSi2SO12,3.1941
KInAs3H7O13,3.1941
RbH3WO7,3.1943
Ba2MgFe2CuF14,3.1943
Na2GaSn(PO4)3,3.1944
ZnSiN2,3.1944
LiCo2(PO3)5,3.1948
Ba2As6O11,3.1948
C3N4,3.1949000000000005
BaTe3O7,3.1953000000000005
LiPaO3,3.1954
LiFePO4,3.1954
Na8TaGa3Si5SO24,3.1956
Li3FeB8O15,3.1956999999999995
Na4Ta3InSi4(PO12)2,3.1958
As2H2CCl4,3.1959
LaGaGe2O7,3.1959
Al11AgO17,3.196
Na7Sr2Fe7F32,3.196
VF5,3.1961
Na3CdPCO7,3.1961
Rb2W(OF2)2,3.1963
NaPrO2,3.1965
Li3MnFe2(BO3)3,3.1966
Li3SiBiCO7,3.1966
Zn3BPO7,3.1968
KGaGeO4,3.197
ZnFeP2O7,3.197
NaTaSi2SnSO12,3.1971
NbPO5,3.1971000000000003
Sr2Si5N8,3.1972000000000005
LiCoPO4,3.1973
CdH16C4S4(N4Cl)2,3.1973000000000003
BaNaCr2F9,3.1974
NaAl2In2PS5O24,3.1976
Tl3AsF6,3.1978
Mg30NiCO32,3.1979
KMg6WO8,3.1983
BPb2O3F,3.1984
ErPaO4,3.198500000000001
MgSi4(MoO6)2,3.1986000000000003
Ca2DySbO6,3.1986000000000003
MgMn2(PO4)2,3.1987
H9CN7O3,3.1987
ScFe2BO5,3.1989
HfPbO3,3.1989
ZnH4(CO3)2,3.1989
Na10Zr6Zn2Si7S5O48,3.1991
SiH14C4S2(N4F3)2,3.1991
LiCo2P4H3O14,3.1992000000000003
LiFe2F5,3.1995
LiFeF4,3.1996
Li4Ni3(OF3)2,3.1996999999999995
KTbPrSbO6,3.1998
Na3CaScSi(SO6)2,3.1999
BaSrCaWO6,3.1999000000000004
LaCN2Cl,3.2
Mo4H12N2O15,3.2002
K2NaMo(OF)3,3.2003
Na5Ta2Al2Si3(PO8)3,3.2003000000000004
KLiTm2(MoO4)4,3.2004
Li4MnFe3(BO3)4,3.2005
K2Ti2O5,3.2006
Rb2AuBr,3.2007
Na6CaTa5Si6(PO12)3,3.2007000000000003
KEu(MoO4)2,3.2008
PC2S2N3,3.2009
KBrF4,3.2009
LiMnPO4,3.2011
BaSrI4,3.2012
MgFe2(PO4)2,3.2013
K2PO4,3.2014
K2Fe2P2O7F2,3.2015
HgBrO3,3.2015
K2RbCoF6,3.2015
Si2Ni3H4O9,3.2016000000000004
SrCaSmSbO6,3.2016000000000004
HgH10C2(SO4)2,3.2019
Na2LiFePCO7,3.2019
MgH12(ClO5)2,3.202
NaEr(MoO4)2,3.2021
Li2FeSiO4,3.2021
CsCrNiF6,3.2021
BaSrI4,3.2021999999999995
CaSiSnO5,3.2022
Na3Zn2In2PS5O24,3.2023
Sr2HfO4,3.2023
Na6Al4Fe(Si4O13)2,3.2025
BiBOF4,3.2025
PrTl(MoO4)2,3.2027
GdOF,3.2028
KLiNd2(MoO4)4,3.2028
Zn(CO2)2,3.2028
LiFePO4,3.2031000000000005
Na3YTaSi2PO12,3.2033
BaThO3,3.2033000000000005
K6Na3Ti2Al2Si8Cl3O26,3.2034
CsRb2CoF6,3.2035
LiFePO4,3.2037000000000004
HgC2(Br2N)2,3.2037000000000004
Ge3BH4NO8,3.2039
CaNdGa3O7,3.2042
Y2Hf2(MoO4)7,3.2042
Bi4(B2O5)3,3.2042
Na5Zn2In2P3(SO8)3,3.2043
Na14Al4Zn4Si5S7O48,3.2045
TmPaO4,3.204500000000001
Na2ZnGe2(HO2)4,3.2046
Na10Sc4Zn4Si3(S3O16)3,3.205
TlF,3.205
Mg6CrCdO8,3.205
Dy2MgTiO6,3.2053
AlI3,3.2053
Li2Mn(SeO3)2,3.2053000000000003
K3Tb(BO3)2,3.2054
Zn(HO)2,3.2054
Zn3As2(HO)16,3.2054
MgMn2(PO4)2,3.2055
SrCN2,3.2056
ZnH8(NO2)6,3.2056
Na4As2O7,3.2056
Li2CoP2O7,3.2057
KSbMoO5,3.2057
Li3BN2,3.2057999999999995
Ca2ZnFe(SiO3)4,3.2058
LiSnPCO7,3.2058
Cd(HN2)4,3.2059
Na3ZrSi2GePO12,3.2059
VOF3,3.2059
B10H13,3.206
Li3Bi2(BO3)3,3.2060000000000004
SnH7Cl3O4,3.2061
Na12Mg4Ta2Si3(PO6)6,3.2061
KH2(IO3)3,3.2061
Na5Y3TaSiP5O24,3.2062
BaTb2O4,3.2062000000000004
YH6C2SNO9,3.2063
Na3Si2Ge2PO12,3.2063999999999995
Li2FeSiO4,3.2064000000000004
Ta4PbO11,3.2066
Na3CaTa5Si3(PO6)6,3.2068
LiFePO4,3.2069
Li3VPCO7,3.2070000000000003
AgH8C5S2O2F3,3.2071
TmSbMo2O9,3.2071
Na2MgGaP(SO6)2,3.2073
P2Pb4O9,3.2074
P2Pb3O8,3.2075
Li2Sn(BO3)2,3.2075000000000005
MgMn2P2(H2O5)2,3.2076
Sr3LiNbO6,3.2076
HfMg14VO16,3.207700000000001
Ge3Cl8,3.2078
RbCdC3(SN)3,3.208
Na2TiSiO5,3.2081
Li2Mn2(Si2O5)3,3.2082
Mg2TiO4,3.2082
Na2ZrCo(P2O7)2,3.2085
CF,3.2086
Li3VPCO7,3.2087
PH18PtC6S3ClF6,3.2089
Ca2Al2SiO7,3.2089000000000003
Li4V(PO4)2,3.2092
KHo(MoO4)2,3.2092
Li11Fe6F29,3.2092
Li3Mn4(BO3)4,3.2093
Cs4ZrO4,3.2093000000000003
LiMn3P3O11,3.2093000000000003
Na3H4Au(SO2)4,3.2094
ZrPbO3,3.2094
TmH16C4N11O13,3.2094
Sr2LuNbO6,3.2094
NiAg(PO3)3,3.2094000000000005
Li2Fe3F8,3.2095
BaLaCl5,3.2095
Si2SnO6,3.2095
KNOF2,3.2096
AsC18F17,3.2096
AlCoF5,3.2098
Sb2(SO4)3,3.2098
KDy(MoO4)2,3.2098000000000004
Mg30ZnFeO32,3.21
CoH18N6(ClO)3,3.2102
LiCoPO4,3.2103
Gd2Si2O7,3.2104
K2NdAgBr6,3.2105
PSN9,3.2106
Ba2Sr7I18,3.2106
Tb2Hf2(MoO4)7,3.2106000000000003
K2Fe2P2O7F2,3.2106000000000003
K2SbCl5,3.2107
K2Ti(SiO3)3,3.2108
Na3SbF6,3.2108
Sr5Li25La7Nb8O48,3.2109
ScTaP2SO12,3.2109
Na5Mg2Ga2P3(SO8)3,3.2109000000000005
Tb(IO3)3,3.2110000000000003
LiMg6Sc(SiO3)8,3.2111
K4MoC4(N2O)2,3.2112
VH4N(OF2)2,3.2112000000000003
BaHBr,3.2113
Sr2V2O7,3.2113
VOF3,3.2113
Na2ScInSi(SO6)2,3.2113000000000005
MgTa5(PO4)9,3.2116
ScH11(IO3)2,3.2116
BiOF,3.2117
LiMnPO4,3.2117
Na5Fe3F14,3.2117
HfSCl6O,3.2117
Na4La3TaSi3(SO8)3,3.212
CaZrO3,3.2122
ZrHgH10C6O17,3.2128
Li8MnFe7(BO3)8,3.2128999999999994
CaMnF6,3.2129
NdTa3O9,3.2129000000000003
ScH3(CO2)3,3.2131
La6WO12,3.2132
AlGaO3,3.2132
Y2MgTiO6,3.2132000000000005
LiV(PO3)4,3.2134
K3WC4N4OF,3.2134
Na4GaSi2SnPO12,3.2136
Li4Mn3Sn(PO4)4,3.2141
SrMnZn(PO4)2,3.2141
Sr2CaTeO6,3.2142
Na4Si3(GeO6)2,3.2143999999999995
SrZrO3,3.2143999999999995
Li2Co(SO4)2,3.2144000000000004
Ca4ZnCo(Si2O7)2,3.2147
LiMn2(BO3)2,3.2148000000000003
Ba2GdTaO6,3.2148000000000003
K2SN2O5,3.2149
Na6Hf4Zn4Si3(S3O16)3,3.2149
CdSi3AsH27C9I2,3.2149
Na3ScTaSi2PO12,3.215
LiSnPO4,3.215
K2NaInCl6,3.2151
CaY2(GeO3)4,3.2152000000000003
Li2TiSiO5,3.2153
CaMn(SiO3)2,3.2155
LiMg30WO32,3.215699999999999
Ti(GeO3)2,3.2157
Li10Sn(PO6)2,3.2157
KGd(PO3)4,3.2157
SrSmGa3O7,3.2158999999999995
Dy2(MoO4)3,3.2159000000000004
NaYTa3SiP5O24,3.2162
LiFePO4,3.2165
BaAlSi4N5O3,3.2165
BaSrLa4O8,3.2168
Li3Bi(BO3)2,3.2169
Na4La3Ta(PO4)6,3.2171000000000003
LiNiPO4,3.2172
Na2ZrSiSn(PO6)2,3.2172
TaGa3P2(SO6)4,3.2173
LiFeF4,3.2173
LiFe(SiO3)2,3.2173000000000003
LiMg6CrO8,3.2174
Na2YGaP2SO12,3.2174
Li2Ni3OF6,3.2175
P4(S2O)3,3.2175
SrZnFe(PO4)2,3.2177
LiMnPO4,3.2177
CsCeMg6O8,3.2177
Na6TaAl3Si2(PO6)4,3.2179
CoH40C10Br2(N2O)10,3.218
Ca(H8O5)2,3.2181
Na4Ca2Al2SiS5O24,3.2183
Ba3Al2Ga2(FeO6)2,3.2184
NaSc2Ta2P5SO24,3.2185
K3ScBr6,3.2185
KCaZrSbO6,3.2186000000000003
Na3In(PO4)2,3.2187
CdSO3,3.2188
Cs2KGdCl6,3.2188
CdH4S2O5,3.2189
Zr3Ti(PbO3)4,3.2190000000000003
CaWF5,3.2191
LiFe2F5,3.2193
Li2SbPCO7,3.2196
BaCaLaSbO6,3.2198
Tb2Se2O7,3.2198999999999995
H8RuC5N(ClO)3,3.2199
Ba2SrWO6,3.2199
SrPrScO4,3.2199000000000004
CaN6,3.2200999999999995
KPrYSbO6,3.2201000000000004
Mg30ZnFeO32,3.2203
CoNi(PO3)4,3.2203000000000004
Cd(IO3)2,3.2204
PrGaGe2O7,3.2204
Na5TaAl3SiP5O24,3.2204999999999995
Ba2Sc2O5,3.2206
ReO2F3,3.2209
Na2CaZr3P4(SO12)2,3.221
Na2CrH5C4O11,3.2211
VOF3,3.2211
Lu2Te4O11,3.2212
PRu5C16(O5F)3,3.2212
NaZnIn3(SO4)6,3.2213
HfVF6,3.2213000000000003
NaGa(SeO3)2,3.2216000000000005
Li2Fe(SiO3)2,3.2217
Ga4B2O9,3.2219
LiFe4(PO4)3,3.222
Al2Cd3(SiO4)3,3.2220000000000004
Na14Al4Ga4Si7S5O48,3.2221
Na4SiO4,3.2221
Rb3ScBr6,3.2222
DyTa7O19,3.2223
ErSbMo2O9,3.2223
Mg10FeO11,3.2225
Rb2MgH4,3.2226
Na4TaIn3(PO4)6,3.2226
NaCaAlFe(SiO3)4,3.2227
Na2MgB12(H4O7)4,3.2228
Na2Hf2Zr2Si3(SO8)3,3.223
BaNaH6Ir,3.2231
Ba2MgWO6,3.2231
SnH6Cl4O3,3.2231
ThH8(CO3)4,3.2233
KTbH(SO4)2,3.2234
Zn3Mo2O9,3.2234
K2Al2Si3(HO5)2,3.2234
Cr(CO)6,3.2235
TbSbMo2O9,3.2235
Re2Ni(H2O3)4,3.2235
FeP3(HO5)2,3.2236
Cr(PO3)3,3.2236
LiNiPO4,3.2237
SrPrInO4,3.2238
LiCoPO4,3.2239
CsRb2GdCl6,3.2239000000000004
Cs2ZnI4,3.224
TlBiF4,3.224
KNa2CoF6,3.2242
La3Sb5O12,3.2242999999999995
TaPO5,3.2243
NaVO3,3.2243
BeC2,3.2247
Tm2Te4O11,3.2247000000000003
KHS,3.2248
Al2NiO4,3.2249
Na3YBr6,3.2249
LiY(MoO4)2,3.225
H8C3SeN2,3.225
Ba2MoO3F4,3.225
Li4VP2O9,3.2250999999999994
PbSO3,3.2251000000000003
Hf3MgSiS5O24,3.2251000000000003
Bi2B3HO8,3.2252
Cs2MgCr2(H6O7)2,3.2252
Na5Hf2Si3Sn2(PO8)3,3.2254
Ba(BrF4)2,3.2254
Li6NiO4,3.2254000000000005
BaGaH5,3.2255
La6Mo8O33,3.2255000000000003
BaHo2O4,3.2256
Ba3CaTa2O9,3.2257
Ca2V2PbO8,3.2257
Li3Mn2F7,3.2257
KCaCr2F9,3.2258
PCF3,3.2259
La3As2ClO7,3.2259
LiFeF4,3.226
Na7La2In2SiP5O24,3.226
KLiHo2(MoO4)4,3.2260000000000004
SrLaInO4,3.2261
NaMoO3F,3.2261
Na2SbAsCO7,3.2261
Ho2MgTiO6,3.2261999999999995
Ba2ScV3O11,3.2262
Ba5V4(ClO7)2,3.2262
Nd2H12C7N2O17,3.2262000000000004
Bi2Se3O10,3.2263
LiMnPO4,3.2264
CuB(CN)4,3.2264000000000004
CsSm(MoO4)2,3.2265
H8C2(N2O)3,3.2268
LiGd(WO4)2,3.2269999999999994
Ca2TiAlSi2O9F,3.2274
YTaP2SO12,3.2274000000000003
YCr(BO3)2,3.2276
Li2Mn(SiO3)2,3.2278
Na2CaP2H16(S3O4)2,3.2278
RbCrNiF6,3.228
Dy2Hf2O7,3.2281
CaZnH10Br4O5,3.2282
Se(OF)2,3.2282
Na3AsO4,3.2282
K2TiGe(PO5)2,3.2284
Li8Ni(O2F)2,3.2285000000000004
VP3(Pb3O8)2,3.2286
Ba3LaV3O12,3.2286
BaZn2(BO3)2,3.2287
HoPaO4,3.2288
Mg(SiO2)6,3.2288
BaCr(Si2O5)2,3.2289
H4Os3C10O9,3.2289000000000003
MnCO3,3.2291
SrLaDySnO6,3.2292000000000005
Li3V(Si2O5)3,3.2295
ZnAs2S4(O2F3)4,3.2295
MgMn2(PO4)2,3.2295000000000003
BaTm2O4,3.2297
Pb2CCl2O3,3.2298
Cs3Bi2Cl9,3.2299
Ba2YSn2F11,3.2299999999999995
LiNiPO4,3.2301
KNO3,3.2301
HfI4,3.2301
Li12Nb14ZnO42,3.2302
KH8W(NF3)2,3.2305
SrTa2O6,3.2307
Ba3La2Br12,3.2308000000000003
B5F6,3.2308000000000003
MgFe3(P2O7)2,3.2309
CaNdGa3O7,3.231
Lu(HO)3,3.2310000000000003
Tb2MgTiO6,3.2311
K8V2(S2O9)3,3.2311
CsNb(PO4)2,3.2312000000000003
Tl2SeO4,3.2312000000000003
Mg14CdNiO16,3.2312000000000003
Rb2MnF6,3.2313
Ba3Dy4O9,3.2313
CaSiSnO5,3.2313
Cs2KAlBr6,3.2314
K3Sn5Cl3F10,3.2314
K2RbGdCl6,3.2314
K2MoSeO6,3.2315
SrTeO3,3.2315000000000005
LiMg6BO7,3.2316
Pr(AlBr4)3,3.2316000000000003
Li4Cr(PO4)2,3.2317
BaCaV2O7,3.2318
ZrN6O17,3.2319
Li3Sb3(PO4)4,3.232
Na3ZrSi2SnPO12,3.2320999999999995
KBiF4,3.2321
K2BeH4(SeO5)2,3.2322
K3In3(PO4)4,3.2322
K4WO5,3.2323
Na4Mg3ZrP2(SO6)4,3.2323999999999997
Fe3(PO4)2,3.2324
Li4MnFe3(BO3)4,3.2324
Cs2KPrI6,3.2328
Na10Ca4Zn4SiS11O48,3.2328
KPrDySbO6,3.232800000000001
MgNb2O6,3.233
SrAl4O7,3.233
Na14Zr6Zn2Si9(SO16)3,3.2331000000000003
NaTaGe3(PO4)6,3.2332
BaCaNdSbO6,3.2332000000000005
Er2Te4O11,3.2333
Rb2NaCeBr6,3.2334
MgNiP2O7,3.2334
Y3Cr2(GaO4)3,3.2335
FeAs2S4(O2F3)4,3.2335
NaCrF4,3.2336
YMg6CuO8,3.2338
Ba3SrI8,3.2338000000000005
Mg4N6O19,3.234
Na3Zn2Ga2PS5O24,3.234
PbSeO3,3.2341
P3Pb5BrO12,3.2342000000000004
Ba2Si3Ge5O18,3.2348
K3SbO3,3.2348
Sr2CaWO6,3.2349
LaMg6BO8,3.2350000000000003
AlTeCl7,3.2352
Er2MgTiO6,3.2353
LiP2WO8,3.2353
K4Be3O5,3.2353
Al4B2O9,3.2355
CsMoP2HO9,3.2355
TaTlWO6,3.2355
SrNiP2O7,3.2356
Cs2RbGdCl6,3.2357
NaSrNbSnO6,3.2357
CsH7(C2O5)2,3.2358
KHS,3.2359
ScBrO,3.236
Na3Sc3TaP5SO24,3.236
GaB2N3,3.236
SrCaNdSbO6,3.2361
AgPF6,3.2361
KMg30BO31,3.2361000000000004
CsSi2SbO7,3.2361000000000004
LiFeF4,3.2364
H6I3NO9,3.2365
K2MgV2O7,3.2368
BeO2,3.237
LiCr(PO3)4,3.237
SbF4,3.2371
K3Cr(HO)6,3.2374
Na4CaZrSi(PO6)2,3.2374
K3UO2F5,3.2374
NiH4(NO4)2,3.2376
P3Pb5BrO12,3.2377
SrLa2O4,3.2378
ZnCrF5,3.2379
SrTlVO4,3.2379
Ba2GeO4,3.238
NaYH8(CO3)4,3.238
GdAlO3,3.2382
LiFeBO3,3.2382
H6CN2O3,3.2383
Ba2LuSbO6,3.2383
Sr2CaI6,3.2383
P2H16PbC6(NO3)2,3.2384
Na7Ga2Si3Sn2(PO8)3,3.2384
GdOF,3.2384
Y3TaO7,3.2385
NaTaIn(PO4)3,3.2385
Li5La3Nb2O12,3.2385
Ca8V7ZnBiO28,3.2386
BaTm2(MoO4)4,3.2386
Nd3HoZr4O14,3.2386000000000004
LiMnPO4,3.2386000000000004
SrZnSn(PO4)2,3.2387
Mg30NbCdO32,3.2387999999999995
SrPrGa3O7,3.2388