formula,band_gap (MP)
Li3Fe4(BO3)4,1.2706
BaHo2CoO5,1.2706999999999995
MgI8(OF2)12,1.2707
CsFe5(MoO4)7,1.2707000000000002
O2,1.2707000000000002
Li4MnCo2O7,1.2708
LiMnV(P2O7)2,1.271
Yb2PrDyS6,1.2712
HoAgSe2,1.2712
Rb2AlCuF6,1.2712999999999997
Li3Ta5Cu2O15,1.2712999999999997
LiFePbO3,1.2713
RbSnS4,1.2717
LiAgF2,1.2719
Pd(PbBr3)2,1.272
Mo(WS3)2,1.2721999999999998
K2LiMoBr6,1.2722
Al2Cu2Bi2S3Cl8,1.2722000000000002
Na10Mg4Nb4Si7S5O48,1.2723
Cs2TiS3,1.2724000000000002
CsIn5S8,1.2724999999999995
Na10Nb4Zn4Si7S5O48,1.2725
Cs3AsSe4,1.2725
Ba5Li2U3O15,1.2725
Ti4FeBi3O14,1.2725999999999995
LiLaNb4O12,1.2726
LiFe4(BO3)4,1.2726999999999995
ThSe3,1.2728000000000002
Rb4Mg(Se2O7)2,1.2729
La10Bi8O27,1.2729
Ba4PdO6,1.273
Li2TiV2O6,1.2730999999999997
Ta4Cu2O11,1.2731
TiMn3O8,1.2731
Na3CaGe(PO4)3,1.2731
MgV2Zn2O7,1.2733
Te2W2N2O,1.2733
TbTlSe2,1.2733000000000003
Te2MoWSeS,1.2733999999999996
Li2CrFeO4,1.2734
BaInCu3Se4,1.2735
Li2TiV3O8,1.2735
Li2TiFeO4,1.2735999999999996
Li2Mn3NbO8,1.2736999999999998
KPt2S3,1.2738999999999998
Ba2CoMoO6,1.274
NaSbO3,1.2740000000000005
Mn(PO3)4,1.2741
K3Cu3As2,1.2741
Rb2PbO3,1.2741000000000002
RbCu3SnSe4,1.2742
K2In3AgSe6,1.2743
Li9Mn2Co5O16,1.2744
Cs2SnS14,1.2744
ZnO2,1.2744
Te2Mo3W(SeS2)2,1.2744999999999995
YV3O6,1.2744999999999995
MgSiSb2,1.2745000000000002
Li9Mn2Co5O16,1.2746999999999995
CaTi3V5O16,1.2749
Li24Ti7Cr5O36,1.2749
V2O2F3,1.2749
Mg30CoBiO32,1.2750999999999992
Ba(BiS2)2,1.2751
MgFe3Ni2Sb(PO4)6,1.2754999999999996
Y4S3N2,1.2754999999999996
Hg15(As2Cl3)4,1.2755999999999998
RbEu2I5,1.2759
CrBr3,1.2759
Si3Ag10S11,1.2759000000000005
PrSbO4,1.2759999999999998
Te4MoW3(SeS)2,1.2759999999999998
Cs2TlBr5,1.276
Sr2H6Pt,1.2760000000000002
Mn3As(HO2)4,1.2760000000000002
WSBr4,1.2761
CsNbO3,1.2761999999999998
MgTiV2CrO10,1.2762000000000002
Li2Mn3NbO8,1.2763
Li2Ti4Co(PO5)4,1.2763
NaTaN2,1.2764999999999995
Tl4Sn5S12,1.2765
Li9Mn2Co5O16,1.2765999999999995
Cs3Mo5P7O24,1.2767
V2P2H6PbO14,1.2767
CrH20N2O6F5,1.2767
Mo3H24C8S13N2,1.2768
Ca3C3Cl2,1.2768000000000002
MgFeO2,1.2769
MgAg6Mo10O33,1.277
VCrO3,1.277
MgZn2Mo3O8,1.2771
HAuO2,1.2771
La7Cr2BO17,1.2771000000000008
HfMgO3,1.2771999999999997
Li6V2O5F2,1.2773
O2,1.2773
Na2MnCdFe(PO4)3,1.2773
CaNb2O4,1.2773000000000003
CsP7,1.2774
Li4TiCrO6,1.2775
Mg2Mo3O8,1.2775000000000003
LiVCrP2(HO5)2,1.2776
LaP3(HO)6,1.2776999999999998
KP4(WO4)8,1.2777999999999998
AgBi(PSe3)2,1.2778
K3InI6,1.2778
Na2Ta2Ga2Si3(SO8)3,1.2778000000000005
Nd6Ge3S14,1.2778999999999998
Sr2MgZn2Sn2(PO4)4,1.278
V4(OF3)3,1.278
Na2MoO6,1.2781
BaMnO2,1.2781000000000002
YMn(WO4)2,1.2781999999999996
Sb8I2O11,1.2782
VIn3Se4,1.2782
SmBi2BrO4,1.2782999999999998
SrH2,1.2783
Ba2AlFe3O7,1.2784
HoTlSe2,1.2785000000000002
CsHo2Cu3Se5,1.2785000000000002
Na2Mg(CoO2)2,1.2785999999999995
MgNb2(FeO4)2,1.2786
NaSi,1.2787000000000002
NaCaNb3(PO4)6,1.2788
Sr2MnNbO6,1.2788000000000004
LiMnCO4,1.2789
MgFe4(PO3)12,1.2791
VOF,1.2792
TlB2O5,1.2793
Rb8Cu6As8S19,1.2793
Na4Ga2Si3Sn2(SO8)3,1.2793
VO2F,1.2794
V4(OF3)3,1.2794
Mg(FeO2)2,1.2794000000000008
V(PO3)4,1.2795
LiFe6(OF2)4,1.2796000000000003
Cr2XeF10,1.2797
YAgSe2,1.2797999999999998
MgV6O5F19,1.2799
ZnSnAsO5,1.2799
KPrTe2,1.2799999999999998
ErAgSe2,1.2801
InGaAs2,1.2801
Pd2S9N4,1.2801999999999998
LiMnF4,1.2802999999999998
Mn3Si3O10,1.2803999999999998
EuSO4,1.2805
K4MgV2O7,1.2805
TeMo2SeS2,1.2805999999999995
Li4AlCr3O8,1.2805999999999995
Ba4Fe2MoWO12,1.2805999999999995
KSnN,1.2806
Be4TeO7,1.2806999999999995
Hg9P5I6,1.2807000000000002
YMg6CO8,1.2807000000000004
SrInCu3Se4,1.2809999999999997
Na2(ReSe2)3,1.281
Na4ZnSiGe(PO6)2,1.2811
Li9Mn2Co5O16,1.2811
Li12Mo5O17,1.2811
Tb2Mn3Sb3O14,1.2811999999999992
V2O3F2,1.2812
CuBi(WO4)2,1.2814
CaSm4(Mo2O7)2,1.2814000000000003
Zn5(SiN3)2,1.2815
LiTe(H3N)4,1.2815
K2TlPCO7,1.2816
Sr3TaAs3O,1.2816999999999998
K2VAgS4,1.2817000000000005
Zr6NCl15,1.2817999999999998
MgMnV4CoO12,1.2817999999999998
Li4VFe3O8,1.2818
CaTi(GeO3)2,1.2818
LaFeTeO6,1.2818000000000005
VO2F,1.2818999999999998
Li2V(Si2O5)2,1.282
H2W2O7,1.282
YMo3O8,1.2820999999999998
Ba3(AlP2)2,1.2821999999999996
SrS2,1.2822
K2Al11Si13(Ag3O16)3,1.2822
ZnCu2SiS4,1.282299999999999
MnGaO3,1.2823000000000002
VO2F,1.2825
Li2VNiO4,1.2825999999999995
Er3Tl2Cu5S8,1.2826000000000004
Li9Mn2Co5O16,1.2826999999999995
Li2V5Cr2O12,1.2826999999999995
Rb2InSbCl6,1.2828
Li3Mo2P3O14,1.2828000000000004
MoWSe4,1.2829000000000002
Na6In4Si5Ge4S7O48,1.283
Zr2N2O,1.2831000000000006
Li2U(WO5)2,1.2832
CdIn2SeS3,1.2832
V4O7F5,1.2832
VO2F,1.2832
NdCrTeO6,1.2832000000000003
Li3(CoO2)4,1.2833
Mg6NbSiO8,1.2833000000000006
V4O7F5,1.2834
Ge19(SbBr)4,1.2834000000000003
CsGaTe2,1.2835
CeCO4,1.2835
RbNdNb2O7,1.2836
Na2Ca4Ta4Si3(S3O16)3,1.2836999999999998
MnV2O4,1.2838000000000005
CaCu2(Si2O5)4,1.2839
CoP4F12,1.2839999999999998
Na2InAgCl6,1.284
RbAsOF5,1.284
MoF5,1.2841
Cs2Se,1.2841
CrSb3(PO4)6,1.2841000000000002
HI3,1.2841999999999998
CoH8C3(NO3)2,1.2842
FeBN3O3F4,1.2843
Zn2InAgTe4,1.2843
BaSr3(SnO3)4,1.2843999999999998
Li3MnF7,1.2844
MgFe7(Ni3O8)2,1.2844000000000009
Li4V3Co3(TeO8)2,1.2845
TiS4(NCl)5,1.2846000000000002
SrAgTeF,1.2846999999999995
Sr2FeMoNO5,1.2846999999999995
Be(N3O7)2,1.2847
MgV3P3O13,1.2848999999999997
SNClO4,1.2849
KLi6BiO6,1.2849
Na4MgMn2O6,1.285
Ca3Fe4(MoO4)6,1.2851000000000004
Na4MgSi3Ge3(SO8)3,1.2851999999999997
BaWN3,1.2852
Pb(SeO3)2,1.2853
Na5InTe4,1.2854
Cs5As5Se9,1.2854
BaAl2(SiO5)2,1.2855
TbYb2PrS6,1.2855
K2S3,1.2855
Li4MnV(PO4)3,1.2855999999999996
LaFeAsO,1.2855999999999996
MgMn2V2O7,1.2856
Yb(BiS2)2,1.2857000000000005
Zn3In2O6,1.2857999999999996
O2,1.2858
MnTlCl3,1.2858
Zn2Si2AsP3,1.2859999999999996
KHfMg6O7,1.286
Rb2MnV2(ClO3)2,1.2860999999999998
Li2Cr5B3O13,1.2860999999999998
Fe7O3F13,1.2861
MgV2O4,1.2861999999999996
VOF2,1.2862
Ca(ScS2)2,1.2862999999999998
MgFe6Sb10(IO3)6,1.2864
SmCuSeO,1.2864999999999993
K6Pd3(BrCl2)4,1.2865
Fe19(SiO4)12,1.2866
Be2CoCu,1.2866
RbGe,1.2867
CaMnAsO5,1.2868
MgWO6,1.2868
Rb2PdCl6,1.2868
Li32Ti13Cr3O48,1.2869000000000002
Re2Os(Se2Cl)2,1.2869000000000002
MgV4(OF)6,1.2871
Cd2BO4,1.2871
Mg2Bi2O5,1.2871000000000006
CoH16C6(N3O4)2,1.2872
Zn(SbO2)2,1.2872999999999992
Li6V3P8O29,1.2873
MgMn2FeWO6,1.2873
Dy2MgSe4,1.2874
NaBeAs,1.2874000000000003
Li5Fe8(BO3)8,1.2875
NaAlTe2,1.2875000000000003
Y3CuSnS7,1.2875999999999994
Rb3LiTbV2O8,1.2876
Ba4GaN3O,1.2876000000000003
MgSc2V2O7,1.2876999999999996
Rb2MnCl4,1.2877
V2PbN4,1.2878999999999996
Li7MnO5F,1.2879
Mn(SbO3)2,1.2879000000000005
Zn3Ge3(SbO6)2,1.2880000000000005
CS3(Br2N)2,1.2881
K2RbTbMgV2O8,1.2881
MgCr4(WO6)2,1.2882000000000002
Li3MnF6,1.2883
K2NbO3F,1.2883
LiCoSiO4,1.2887
U(SbO3)2,1.2887000000000004
V9O20,1.2888000000000002
MnSeO4,1.2889000000000002
Sm4Se3O4,1.2890999999999997
KAgSnSe3,1.2891
MgSnAsO5,1.2891999999999997
Ba4Ta2TiZnO12,1.2891999999999997
Sr3Li4Nb6O20,1.2892
K3Cu3P2,1.2892
YV(WO4)2,1.2892000000000006
MgMn2P2(O4F)2,1.2893
Na6WN4,1.2893
ZnFe(GeO3)2,1.2894
MgV4O5F7,1.2894
KCaHfBiO6,1.2895
Li2Cr(SiO3)2,1.2895000000000003
VO2F,1.2898
Cu2P8Se3Br2,1.2898999999999998
Li2Mn3ZnO8,1.2898999999999998
MgV4O5F7,1.2898999999999998
Li6CrCoP2(CO7)2,1.29
KPbN,1.29
HAuO2,1.29
LiMn2F7,1.2902
BaTbInWO6,1.2902999999999991
MgV4As2O13,1.2902999999999998
Na6Zn4Si3Ge4(S3O16)3,1.2903
Fe4O3F5,1.2903000000000002
VOF,1.2904
MgZn(FeO2)4,1.2904000000000002
Zn(GaS2)2,1.2906000000000004
Li7Mn3(SiO6)2,1.2906000000000004
SeNO4,1.2906999999999995
Li4V(CO3)4,1.2907
Ba3In2Br2O5,1.2907000000000002
Na6Al4Si5Ge4S7O48,1.2907000000000002
Na5Fe2P2(CO7)2,1.2907000000000002
Li9Mn2Co5O16,1.2907000000000002
Na3CoSiCO7,1.2908
CaTiSiO5,1.2908999999999995
Li3V2(OF)4,1.2909
V5O12,1.2909000000000002
Rb6CdO4,1.291
LiCuS,1.2911
Ti3FeO7,1.2912
Nd4CuTe5(ClO5)3,1.2912
V2(OF)3,1.2913
CsHo2Cu3Se5,1.2914
Sr2GaSbO6,1.2914
LiMnF4,1.2914
V2(OF)3,1.2915
Pr4Ag2Se7,1.2916
V2OF5,1.2916
Ta2Hg2F11,1.2916
Li2AlCoO4,1.2916999999999998
Li4V5Co3O16,1.2917
Li2Mn2OF6,1.2918
Li2V(PO3)4,1.2918000000000005
AsS2,1.2919
LiZn2(FeO2)4,1.2919999999999998
Rb4Mg(CoO3)2,1.2919999999999998
H2Pd(PbO2)2,1.2919999999999998
Na30Mg16Nb8Si15(S7O48)3,1.2919999999999998
CsNdTe2,1.2919999999999998
RbPSe3,1.2921
Cs4CO4,1.2921
K2InAgCl6,1.2922
K3Gd(PO4)2,1.2922
NdCoSbPbO6,1.2922000000000002
VFeP2(O4F)2,1.2924
Cs2TcCl6,1.2924
K3IO5,1.2925
Li8V3P8O29,1.2925000000000002
V3O2F5,1.2925999999999995
Na6Mg4Ta4Si5S7O48,1.2927
Na7Mn5P3H6O15F13,1.2927000000000002
Ca2CdP2,1.2927000000000004
Li24Ti7Cr5O36,1.2928000000000002
Bi19(S9I)3,1.2928999999999995
Zn(WO2)2,1.2928999999999995
Sr6Mg(Te4O11)2,1.2928999999999995
Nb3N2Cl7O5,1.2929
V4OF11,1.293
Rb2InAgCl6,1.293
BaLaAgTe3,1.2931
V2OF5,1.2931
Na6Nb20Zn4Si21(S5O48)3,1.2931
Na14Ti2Zn6Si5S7O48,1.2931
V4OF11,1.2932
Li3V3(BO5)2,1.2932
GdMnGe2O7,1.2932
ZnH16C4S4(N5O3)2,1.2933
Ca2Mn2Si4H8O17,1.2933
LiMg6CO8,1.2934
Ba3Al3As5,1.2935999999999996
LiV3OF11,1.2936
CrBiO3,1.2936999999999994
MoO2,1.2937000000000003
Sm4Mg(Mo2O7)2,1.2937000000000003
KMg6AlO8,1.2937000000000003
Li24Ti7Cr5O36,1.2939000000000005
Rb3BAs2,1.2941000000000005
H8PdC2NCl3,1.2942
Na15Ca7Nb5Si9(SO8)9,1.2942
Mg(FeO2)2,1.2942999999999998
LiCoSiO4,1.2943
TeMoWSe3,1.2943000000000002
V2OF5,1.2944
VP2O7,1.2944
Ga2Te2Br7,1.2944
MnZn(GeO3)2,1.2945
Mg6MnCO8,1.2945000000000002
TbBi2BrO4,1.2946
V4OF11,1.2946
As(NF2)3,1.2946
Li3BH6,1.2946
SrLaMgNbZnO6,1.2946
Li5Fe2P2(CO7)2,1.2947
LiV(SO4)3,1.2947
Sr4Mn3O10,1.2947000000000002
LiFeP2O7,1.2947000000000002
CaTi2S5,1.2948
As2C4S2O,1.2948
Hg6BiAs4Cl7,1.2948000000000002
HgP14Pb,1.2948000000000004
V4OF11,1.2949
Na3LaSi3Sn3(SO8)3,1.2949
MgV3FeO8,1.2949
Li2AlCoO4,1.2949000000000002
Na6Cd(SnS3)4,1.2949000000000002
MgMnV3O8,1.2951
Tl2B2Se7,1.2951
Rb2AgAsCl6,1.2952
MnVSbO6,1.2952999999999992
FePH12(CBr)4,1.2953
CaPtO3,1.2953
PtF4,1.2954
C15BrCl6,1.2956
Li5Fe8(BO3)8,1.2956
MgIn2O4,1.2957
LiCr2P3O13,1.2957999999999998
Mg(Mo3O8)2,1.2957999999999998
Rb3Nb2S11,1.2958
Ba6MgCo2(Sb2O9)2,1.2958000000000005
V2Zn(PO4)2,1.2958999999999996
VOF2,1.2959
Nd6MnS10,1.2959000000000005
LiMn(PO3)4,1.2959999999999998
AuCl,1.296
Mg2Al2O5,1.2961999999999998
BaNb3NO7,1.2963000000000002
BaP10,1.2963000000000005
Na10Ti2Zn6Si3(S3O16)3,1.2963999999999998
Cs4Na2MgV2O8,1.2964000000000002
MoP2H18(C3Cl)2,1.2965
Na6Cr2As(CO4)4,1.2966999999999995
LiVCr(P2O7)2,1.2967
Ga4Te3N2,1.2967999999999995
Cr4OF6,1.2968000000000002
K6MnS4,1.2969
Ba2VO4,1.2970000000000006
Ta4S9Br8,1.2971
W2CCl8,1.2971
Li9Mn2Co5O16,1.2971999999999997
Cs2GaAgCl6,1.2972
LiMnF4,1.2972
Ta3In2Cl9,1.2972
Li2V5O10,1.2972
LiZnP,1.2972000000000006
Te3MoWSe,1.2973
LiMnV(P2O7)2,1.2975000000000003
Li3La8Ti9Cr3O36,1.2976
Y(Bi5O8)3,1.2976000000000003
CsTeAu,1.2977
V2OF5,1.2977
Li2AlCoO4,1.2978000000000005
Li4Ti3Nb2Co3O16,1.298
Ta2CrNO5,1.2980000000000005
MnH6(OF)3,1.2980999999999998
KYTe2,1.2981000000000005
ZnTe2O7,1.2982
Na4CoO4,1.2982
K2Re3CS5N,1.2982
Na7Mg3TaSi3(SO8)3,1.2982999999999998
Sr2NF,1.2984
RbCaAs,1.2985
LiTi2VO6,1.2985000000000009
BaYInWO6,1.2985999999999995
Tb2MgS4,1.2985999999999995
Cd3PI3,1.2987000000000002
V4OF11,1.2988
Mn2FeSbO6,1.2988999999999995
K4Te8O23,1.2989000000000002
RbMgV4O10,1.2989000000000002
C28Cl5,1.2990000000000002
TlAgPSe3,1.2990999999999997
Na2Fe3SbO8,1.2992
Li3V2Fe3O10,1.2992
LiCa2HC3,1.2992
Bi17(WO11)3,1.2992
NaB10Pb4Cl2O19,1.2992
KAlCr2(HO4)2,1.2993
V2OF5,1.2993
K2U(BrO)4,1.2993
RbNdTe2,1.2994
Tl2V8O21,1.2994
Tl2PAuS4,1.2994000000000003
MnPb2WO6,1.2994999999999992
Li3V2(SiO5)2,1.2995
Li2VO2F,1.2996
HoSF,1.2996
Ho20Cu6(Pb3S14)3,1.2996000000000003
CdBiIO2,1.2997999999999994
Na4PbO4,1.2998000000000005
Ag2TeS3,1.2999
Fe3Ag7(P2O7)4,1.3001999999999998
CsErTa6Cl18,1.3001999999999998
Li6V3P8O29,1.3001999999999998
SbH12C5N3Cl4,1.3002
KMnPO4,1.3002000000000002
LiCr3(FeO4)2,1.3003
Na6La4Si5Sn4S7O48,1.3003000000000002
La5TlSe8,1.3003999999999998
V4O5F7,1.3004
La3AgSnSe7,1.3004999999999995
W6CCl18,1.3005
V2OF5,1.3005
Pd(NO3)2,1.3005
Cr3Sb3(TeO8)2,1.3007
Nb2PS10,1.3009
NaFe4(MoO4)5,1.3009000000000002
MgBi4(WO6)2,1.3009000000000004
SrMg6SnO8,1.3009000000000004
CdGeO3,1.301
Li4Ti3Nb2Fe3O16,1.3010000000000002
Li7V3P8O29,1.3010000000000002
CsEr2Cu3Se5,1.3011
Mg30CrFeO32,1.3011
MgMn3FeO8,1.3013
Li5Fe8(BO3)8,1.3013
Li4V3O8,1.3013999999999997
Li2Mn2OF6,1.3015
MgFe2(CoO2)4,1.3015
PrVO3,1.3015999999999996
Te4Mo3W(SeS)2,1.3016
Li24Ti7Cr5O36,1.3016
Li3V2O6,1.3017
SrH2,1.3017999999999998
Li3Mn(PO4)2,1.3018
V6Fe4(CuO8)3,1.302
V2OF5,1.3022
K2Sn2O3,1.3022
La2Cd2O5,1.3022000000000005
VO2F,1.3023
Mg(ScSe2)2,1.3024
Li4MnP2O9,1.3024999999999998
KRe3Os3(Se4Cl3)2,1.3025
Li2CoSn(PO4)2,1.3025000000000002
MgCr2O6,1.3026
Mg14CrBO16,1.3026
Ti5Fe7O18,1.3026
Rb2Pd3S4,1.3027000000000002
MgFeO2,1.3027000000000002
TaZn2WO6,1.3028
KZrGeBiO6,1.3028000000000004
Rb3LuCl6,1.3029
MnP2HO8,1.3029
MgFe6(OF)6,1.303
Tl3BO3,1.303
Na10Ca4Ga4Si3(S3O16)3,1.3030000000000002
Na2Zr2Ti2Si3(SO8)3,1.3031
Ti2Tl3P5S18,1.3031
Rb4MgMo2(SO)4,1.3031
MgScMo3O8,1.3031
K3As7,1.3032
MgBi8(PO4)8,1.3032000000000004
Ba5Zr2N6,1.3033
Mg(BiO2)2,1.3033
P4Os,1.3036000000000003
Ca2In2O5,1.3036000000000003
Ca(SnO2)2,1.3036999999999992
Na8Ca3Ge(PO4)6,1.3037999999999998
Ti3MnSn2(PO4)6,1.3037999999999998
ZnCr2F12,1.3037999999999998
Li2VFe3O8,1.3039
Fe5(OF4)2,1.3040999999999998
Li(Fe2O3)4,1.3041
Cs12Sn8GeO4,1.3041
Mg(MoO2)2,1.3041999999999998
In3Te3Br,1.3041999999999998
CaCrAsO5,1.3041999999999998
RbUCrO6,1.3042
Zn(FeO2)2,1.3043000000000005
BaSn2S3,1.3045
VPO5,1.3045000000000002
Sr2TaMnO6,1.3047
K6Nb4S25,1.3047
RhSCl5,1.3047
SrCd3S4,1.3047
LuAgSe2,1.3047
LiMg6CoO8,1.3048000000000002
Li2VSi2O7,1.3048000000000002
LiVBO4,1.3048000000000002
Al2HgS4,1.3048999999999995
Li4VO3F2,1.3049
V2OF5,1.3049
YZnPO,1.3049
K2VAgS4,1.3049999999999995
RbFeCl4,1.305
Li5CrO4,1.305
Cs2TlAsBr6,1.305
LiCoSiO4,1.3052
MgFe6O7F5,1.3053
HgI2,1.3054
MgFe8(OF)8,1.3058
Li2CrSiO4,1.3058999999999994
Li3V2(PO4)3,1.3058999999999998
P,1.3058999999999998
LiAuO2,1.3059
Sr3(CoO3)2,1.3059000000000005
DyAgSe2,1.306
TcF4,1.3061
SmBi2IO4,1.3061000000000005
Ba(GaAs)2,1.3062
Na2Ca4Ti4SiS11O48,1.3062
SrLa11Mg3Ga9O34,1.3062000000000005
MgFe8(OF)8,1.3063
MgC2S2(OF)2,1.3063
NaMnPCO7,1.3064
SbKr3F11,1.3064
Li4Fe5Sb(PO4)6,1.3064000000000004
C2S2NCl3,1.3064999999999998
CeP2H2CO6,1.3065
Na2Sc2Ta2Si3(SO8)3,1.3065
MgTiV4CoO12,1.3066
LiVPO5,1.3066
Li7Mn2(CoO4)3,1.3066
LiMn28O56,1.3066
TmTlO2,1.3066
Na2Sc4Nb4Si5S7O48,1.3067000000000002
Li5V3(NiO5)2,1.3068
CuRe2(H2O3)4,1.3068
TePIr,1.3068999999999988
MgFe3Co2Sb(PO4)6,1.3069000000000002
LaTiNO2,1.3069999999999995
Te7IrBr7,1.307
Li4V3Fe3(WO8)2,1.307
As8H2CS10(N10Cl)2,1.3071
K2Gd2Mg(MoO4)4,1.3071000000000002
Sr3MgCr2S2O5,1.3072999999999997
NaYGeP2SO12,1.3074
Y20Cu6(Pb3Se14)3,1.3074
Hg2AsCl2,1.3074
Mo2WS6,1.3075
MnGeO3,1.3076
Tb2FeSbO7,1.3076000000000003
V4O7,1.3076000000000003
MgVSiO5,1.3076999999999996
Li5Fe8(BO3)8,1.3078
MgMoAsO5,1.3078000000000003
Mg(SbO2)2,1.3078999999999992
K2NaGaP2,1.3078999999999998
CSN2,1.3078999999999998
Hg11I2BrClO4,1.3079
MgP4H24(NO)8,1.3079
NaV2(PO4)3,1.3079
La2Te4Pb,1.3079
Tl3Ag3(AsS3)2,1.3079999999999998
LiMn2OF3,1.3080000000000005
GdBi2IO4,1.3080999999999996
MgZn3Cu2H14(SO9)2,1.3081999999999998
Na4Mg(CoO3)2,1.3082
Li2V3SbO8,1.3082000000000005
Hg15(As2Cl3)4,1.3083
Pr2Fe2Se2O3,1.3083999999999998
Co2SiO4,1.3083999999999998
Li9Mn2Co5O16,1.3083999999999998
LiLaNb4O12,1.3084
Cr4Xe5F44,1.3084000000000002
Li4V2(SiO4)3,1.3085
Li2V(PO4)2,1.3085000000000002
Fe10O11,1.3085999999999998
MgV2Cd2O7,1.3086
Sb(OF3)2,1.3087
Ag3Se3NO3,1.3087
MgV4O7F5,1.3087000000000002
Be2Co(NF7)2,1.3088000000000002
YBi2ClO4,1.3088000000000002
Ti3FeSn2(PO4)6,1.3088000000000002
SrMoO3,1.3088000000000006
Ba4CN4,1.3090000000000002
Ti2VHO6,1.3090999999999997
LiSc4(FeO3)4,1.3091
Li3Fe8(BO3)8,1.3091000000000002
Ba2ThS6,1.3091000000000004
BaLu2CoO5,1.3091999999999997
LiV2(PO4)3,1.3092
V2OF5,1.3093
Na2La6Nb2Si3(S3O16)3,1.3093
Ba6MgCr2O10,1.3093
S5N2ClO6,1.3093
Ba(SbN2)2,1.3093000000000004
Si,1.3094
LiV(PO4)2,1.3094
BaFe12O19,1.3094999999999994
In2Te9RuCl8,1.3095
MgTl6(SbS4)2,1.3095
LiMn2F7,1.3095
Na4La2Ti2Si3(SO8)3,1.3096
K3MgV3O8,1.3096
Li2Mn3NbO8,1.3096
SrGaCu3Se4,1.3096
MgMn4(FeO6)2,1.3099
NaCaTaSi(SO6)2,1.3099
Nd2TeO2,1.3099999999999996
Ba2MgCuBi2F14,1.3099999999999998
MgAg6Mo10O33,1.3099999999999998
Li9Mn2Co5O16,1.3100999999999998
Li2V(PO4)2,1.3100999999999998
Al2SiO5,1.3101
Tl3B3Se10,1.3101000000000005
Mn(PO3)3,1.3101999999999998
K15Cr7N19,1.3101999999999998
Li9Mn2Co5O16,1.3102
LiCoSiO4,1.3102
MnSb2H18(Se2N3)2,1.3103
Li5MnO3F,1.3103000000000002
LaTlGeSe4,1.3103999999999996
ThNb4O12,1.3104
CsLaZr6FeCl18,1.3104999999999998
Mo6H10N2Cl14O,1.3106
CoH7C4(NO3)2,1.3106
Ba(YbSe2)2,1.3108
Ba2GdMgSbO6,1.3108999999999995
Rb2CdO2,1.3109
Fe2OF3,1.3111
MgFe8(OF)8,1.3113
Na2TiO3,1.3114
MgH12(I4O3)2,1.3114
MnZn3F6,1.3114
BaEr2CoO5,1.3114999999999997
Rb3NiO2,1.3115
Li7Mn5O12,1.3117
VFe5(PO4)6,1.3117000000000003
V3O5,1.3118
ThN3O14,1.3118999999999998
Li2V2Si2O9,1.3120000000000005
Gd(PO3)3,1.3121
NaH2BrO5,1.3121999999999998
Ba8In8O19,1.3122000000000005
LiVPO5,1.3123
MgFe8(OF)8,1.3123000000000002
Li3Ti2V3O10,1.3123999999999998
Dy2MgS4,1.3124000000000002
Nd2NiO4,1.3124000000000002
MgBi4(WO6)2,1.3126000000000009
CsLu(TaBr3)6,1.3127
Li4Cr(PO4)3,1.3127000000000002
LiCoSiO4,1.3127000000000002
Cs4Th2P5Se17,1.3128
V2CrO6,1.3129
K3BAs2,1.3129
Th2PNO,1.3129
BaTm2CoO5,1.3129999999999995
ScBr3O7,1.3130000000000002
Mg30NiBiO32,1.3130999999999995
Li10Ge(PSe6)2,1.3131000000000002
In10(Pb2S7)3,1.3131000000000004
YSF,1.3132
SiO2,1.3132
Zn5Se4S,1.3133
Li32Mn13Cr3O48,1.3133
V4Fe2HO12,1.3134
Cs2(PSe2)3,1.3135
LiMnCrO4,1.3136
Na8Zn3Ge(PO4)6,1.3137
B8PH24PtC7,1.3137
Na14Mg4Nb4Si9(SO16)3,1.3137999999999996
Li2VSiO5,1.3138
AsP3(PbO8)2,1.3138
FePO4,1.3138000000000003
ReTe3Br5,1.3138999999999998
CaCu2(MoO4)2,1.3138999999999998
K4Mg(WO4)2,1.3139
Fe3OF5,1.3139
Mg2Sn2O5,1.3139000000000003
YFeO3,1.3141
Li24Ti7Cr5O36,1.3141000000000005
Sr2FeH6,1.3141999999999998
Li6V3P8O29,1.3142
Fe5(OF4)2,1.3142
CsP7,1.3142000000000005
BaNdCuS3,1.3142000000000005
Mn3SnO8,1.3142999999999998
Rb3AsSe4,1.3144
LiSc4(FeO3)4,1.3144
Li6V3P8O29,1.3145
Na(CoO2)3,1.3145
Hg3S2ICl,1.3146
K2Pt,1.3146
Li3Mo(PO4)2,1.3146000000000004
Ga3Te3Br,1.3147
S4N4O3,1.3148
KTb(N2O7)2,1.3149
Ho2Se3,1.315
MgMo2(PO5)2,1.315
Pr4Se3O4,1.315
Ga2HgO4,1.3150000000000002
KPSe3,1.3151
Re3(SeBr)7,1.3152
K2TaNbO6,1.3152
Li24Ti7Cr5O36,1.3152999999999997
CaZn3O4,1.3153
MgFe4(PO4)4,1.3153
KCu3SiSe4,1.3154000000000003
LaBi2ClO4,1.3154000000000003
Al4C3,1.3154000000000003
Cs2MnF5,1.3155
Mn(FeO2)2,1.3155
Mg(BiO2)2,1.3156
CrF4,1.3156
Na6MgV2(S3O)2,1.3156
CoHCO3,1.3156
MnSbO4,1.3157
Li4Cr2(PO4)3,1.3157
Al2Bi7Ru(BrCl4)2,1.3157
Y2Se3,1.3158
BrNO,1.3158
Li3Fe4(BO3)4,1.3159999999999998
Ba2CuSn2F14,1.3161
RbSmTe2,1.3163999999999998
KH2OsBr4N,1.3164
Mn3Zn3(AsO4)4,1.3164
MgV2In2O8,1.316400000000001
LiV6O7F5,1.3164999999999996
PAuS4,1.3165
V2OF5,1.3165
Ce5Sm2O13,1.316599999999999
Cd(BrO2)2,1.3165999999999998
LiVCrP2(HO5)2,1.3166
Na2ZrSe3,1.3166000000000002
Rb2SnBr6,1.3166000000000002
Te4Mo3WSe4,1.3166000000000009
MgV2(H2O3)2,1.3167
LiCr(SiO3)2,1.3167
V(SO4)2,1.3168
LiV2(PO4)3,1.3169
LiVCO4,1.3169
VCo5AsO10,1.3170000000000002
Nd4AlSi5(NO)7,1.3171
V3ZnFe2O11,1.3171
Na6ZnSi6Sn7(SO8)6,1.3171
LiVPO5,1.3171000000000002
Na2Ta2Al2Si3(SO8)3,1.3172
CsLa(TaBr3)6,1.3172
Li2MnO3,1.3173
Sb2O5,1.3173000000000004
Bi8AsAuCl9,1.3173999999999997
Li5V3P8O29,1.3175
GdFe2BiO6,1.3175999999999997
K2OsO5,1.3177
Cu2WO4,1.3177000000000003
Li4TiV4Cr4O18,1.318
Ca(SbO2)2,1.3180000000000005
VP2O7,1.3181000000000005
K3Sn2P5S18,1.3182999999999998
Li2VFe3O8,1.3184
Li5SbS4,1.3184999999999998
Li15Cr2N9,1.3186
Ca7TiN6,1.3186
FeSeCl7,1.3187
Mn(HO)2,1.3187
Li6V3P8O29,1.3188
Ba6LiNb2Ir(ClO6)2,1.3188000000000004
Na5SrNbP4,1.3189
Er20Cu6(Pb3S14)3,1.3189000000000002
C16Cl,1.3189000000000002
MgFe4As2O11,1.3192
Rb2O,1.3192
Li2VCrO4,1.3192
HgPbF6,1.3192
Li2VCrO4,1.3193
In(GaO2)3,1.3193999999999997
Cr3Ag8(IO6)2,1.3194
Se2NCl3,1.3196
Li3Co2OF5,1.3196
MgTeN2,1.3197
Li6Fe3Sb(PO4)6,1.3198000000000003
Li2Fe4O7,1.3199999999999998
NaMnPCO7,1.3202
K2NbS7,1.3203999999999998
Sr(RhO2)2,1.3203999999999998
ZrCo3(BO4)2,1.3204000000000002
MnGe7N10,1.3206000000000002
Zr(Se2Cl3)2,1.3208
NiH4C2(S2N)2,1.3208000000000002
K2U7O22,1.3209
Li7Mn2(CoO4)3,1.3209
CsAlTe3,1.3209
Sm4AlSi5(NO)7,1.3209999999999995
Ag2SO4,1.321
Li4VGa3O8,1.3210000000000002
K2Rb2Re6S13,1.3210999999999995
Li6V3P8O29,1.3211
Li2V2P2O9,1.3212000000000002