formula,band_gap (MP)
Li4MnFe3(BO3)4,3.1573999999999995
TaGaO4,3.1573999999999995
DyTiClO3,3.1574
Li2V(CO3)2,3.1574
WXeOF6,3.1574
Gd2HfO5,3.1575000000000006
YAg(WO4)2,3.1575999999999995
AgH36S8I2(N3O4)3,3.1575999999999995
Sr2CaWO6,3.1576
NaHS,3.1577
Mg3ZnO4,3.158
NaZnAsO4,3.1581
Na6Hf2Zn6SiS11O48,3.1586
CsGd(MoO4)2,3.1586000000000003
LuBiO3,3.1586000000000003
Li2Fe2C2O7,3.1587
Li2Ti(PO3)5,3.159
GdTmO3,3.1590000000000003
CIN2(O2F)3,3.1590000000000003
Li2CoSi3O8,3.1591
K3NdI6,3.1592
BaMgO2,3.1592
CaGd2(GeO3)4,3.1596
KAsO3,3.1596
Ba2GdPaO6,3.1597
KLiLu2(MoO4)4,3.1597000000000004
Na6MgTa5Si6(PO12)3,3.1598
ZnBi4(PO6)2,3.1599
BaNa2Ti2(Si2O7)2,3.1602
CaAl2(SiO3)4,3.1603000000000003
Rb2Mo4O13,3.1604
C2SNCl2F5,3.1605
Li2SbAsCO7,3.1606999999999994
NaSrNdWO6,3.1607000000000003
Rb3SbO3,3.1608
AsBrOF8,3.1609000000000003
KGd(WO4)2,3.1609000000000003
LiFeBO3,3.1611
Li2NbP4O13,3.1611
LiH4(NO2)3,3.1613
CoP2PbO7,3.1613
RbMg6FeO8,3.1614000000000004
Na7TaGa3Si3(PO8)3,3.1614999999999998
Ca8ZnCo3(Si2O7)4,3.1615
LiMnPO4,3.1615
HoAg(WO4)2,3.1615
Li2VF6,3.1618
Li3Ni3OF7,3.1619
H5C2(NO)3,3.162
Na7Sc3TaSi3(PO8)3,3.1622
Na2Mo(H2O3)2,3.1622
Zn3TeP2Pb3O14,3.1622000000000003
YbO2,3.1624
Na5CrP2(O4F)2,3.1625
BiOF,3.1627
Sr3Tm2(GeO4)3,3.1627
NaZr2In2P3(SO8)3,3.1628000000000003
LiFeF4,3.1630000000000003
Na3ZrSi2GePO12,3.1631
Na10Zr4Sc4Si7S5O48,3.1631
LiFe2F7,3.1632
KFePO4,3.1632
K5Ag(S2O3)3,3.1632
Lu2TiO5,3.1632
Na7Ga2Si3Ge2(PO8)3,3.1633
LiGa(H2N)4,3.1636
Ni(NO3)2,3.1637
Ti2ZnO5,3.1638
Zr2Te4Cl2O11,3.164
Tl2TeH6SeO10,3.1641
K2CoP2(H3O4)2,3.1642
CaCd(WO4)2,3.1642
SrBiBrO2,3.1643
Rb2MnSi5O12,3.1643
V2Sn4H24C8O9,3.1644
Na3Hf2SiGe2P5O24,3.1644999999999994
PrTa7O19,3.1645
K4TiO4,3.1646
NiH14C2N10(ClO3)2,3.1647
K2Ge2Pb2O7,3.1648
Y2Zr2O7,3.1651
Na8Al2Si5Ge2SO24,3.1651
K2HgH4PtC6(N3O)2,3.1651
Rb3V(SO5)2,3.1651
HoTa7O19,3.1653
FeH9C3N7O2,3.1653
Li2AlFeO4,3.1653
RbNbSiO5,3.1653
CsK2SbCl6,3.1654
Na4ZrZnSi2SO12,3.1654
GdP5O14,3.1654
NaTa3InSiP5O24,3.1654
LiTiAsO5,3.1654000000000004
Dy2TiO5,3.1655
Sr3V4CdO14,3.1655
NaPr9Si6(SO12)2,3.1656000000000004
MgGeO3,3.1657
LiFeF4,3.1657
Na10Mg4Sc4Si3(S3O16)3,3.1657
Na8HfZn3Si3(SO8)3,3.166300000000001
KNaW(OF2)2,3.1664
Y2WO6,3.1665
CaH12C2N7ClO6,3.1666
MgTa2(FeO4)2,3.1666000000000003
Cs6Si2O7,3.1667
CsMg30AlO32,3.1667999999999994
H9C4NO4,3.1668000000000003
Mg14CoSiO16,3.167
Ca4ZnFe3(SiO3)8,3.1671
LiLaSO,3.1672
Li3Bi2(PO4)3,3.1674999999999995
LiFeWClO4,3.1676
YTiNbO6,3.1676999999999995
Rb2CdCl4,3.1677
Na3Ta3GaSi3(PO8)3,3.1677000000000004
Nd4Si4N7ClO3,3.1678999999999995
Na5Y2In2P5SO24,3.1678999999999995
Li3V2F9,3.1679
Ba2As6O11,3.1679000000000004
SrMg6SiO8,3.168
SrZrO3,3.1680999999999995
Ba3Lu4O9,3.1681000000000004
Na4ScInSi2SO12,3.1682
Sc(ClO4)3,3.1683
Sn3F8,3.1684
LiFeF4,3.1684
AgH8C7S2O2F7,3.1685000000000003
K4MoO5,3.1685000000000003
K2YInCl6,3.1685000000000003
Na12Ta10Zn2Si15(SO24)3,3.1685000000000003
LiFe2P3O10,3.1686
Li2Cr2SnO6,3.1686
Ba2Sc2B4O11,3.1688
Ba3Mo2(NO3)2,3.1689
Ba3GaS4Cl,3.1691000000000003
Na5Ta3Ti(SiO4)6,3.1691000000000003
LiCr(PO3)4,3.1693
Li2Mn(SiO3)2,3.1693
Ta2Zn2NiO8,3.1694
LiSiBiO4,3.1694
K2Ni(NO3)4,3.1695
Li3CrBPO7,3.1695999999999995
Cs2AuBr,3.1697
BiAsO4,3.1697
BaSrZr2O6,3.1698000000000004
Na5ZrAl3Si3(SO8)3,3.1699
Na6La3TaSi2(PO6)4,3.17
Fe2PH2CO7,3.1702
K3Bi7(SO6)4,3.1703
CdH8C2S2(BrN2)2,3.1704
Na14Ca2Zr6Si9(SO16)3,3.1705
CaLa2TiO6,3.1705000000000005
Li8MnFe7(BO3)8,3.1706000000000003
YTmO3,3.1706000000000003
SrCaLaSbO6,3.170699999999999
RbDy(MoO4)2,3.1708
RbTiZnOF5,3.1708
Li6NiO4,3.1709
BaSrI4,3.171
Cd2TeCl2O3,3.171
Rb2Cd(IBr)2,3.1710000000000003
Pr3Sb5O12,3.1711
Ba3CaSb2O9,3.1711000000000005
Na5Al(HO)8,3.1712
NaHf2VF11,3.1712
MgNiP2O7,3.1714
Li2Fe(Si2O5)2,3.1715
ScGaO3,3.1715
Te4MoW,3.1716
Ca4TiSi4Sn3O20,3.1716
AgH36S8Br2(N3O4)3,3.1716
Sr2SmNbO6,3.1716000000000006
LiSn(PO3)3,3.1717
K2NiH12(C2O7)2,3.1717
GdH2I3O10,3.1717000000000004
LuAg(WO4)2,3.1717999999999997
Mg5Al4Fe(SiO4)6,3.1718999999999995
Na3TaInSi2PO12,3.172
Zr2Mo(PO6)2,3.1721
Na10Y2Ta6Si11SO48,3.1722
K2Ni(MoO4)2,3.1723000000000003
Rb2MgP2WO10,3.1724
MgFe2(PO4)2,3.1724999999999994
VH16C6N6O7F2,3.1725
Cs2AuI,3.1726
PH30Pt2C10I2NCl2,3.1727
RbNb(GeO3)3,3.1728
Li7NiOF7,3.1729000000000003
KGd(MoO4)2,3.1729000000000003
CaHf3SiS5O24,3.1729000000000003
NaFePO4,3.173
Na14Ca5Hf3Si6(SO8)6,3.1731
LiFe2F7,3.1731000000000003
Sr3LiSbO6,3.1732
K2Co(PO3)4,3.1734
YTa3O9,3.1734
Na14Hf4Si11Sn4SO48,3.1734
LiCr(PO3)3,3.1734000000000004
MgTeMoO6,3.1735
Tl4Si5O12,3.1736
Mo(HO2)2,3.1738
CsCrH18Br2N6(ClO4)2,3.1739
Na2TaAlSi2SO12,3.1739
TlReO4,3.174
K3PrI6,3.174
SrTeO3,3.1740000000000004
MgSiO3,3.1742
Na6MgZr3Si4(SO12)2,3.1742
PrTa3O9,3.1742
Na3Ta3AlSi3(PO8)3,3.1742000000000004
BaMg14FeO16,3.1743
Na2ZnSiO4,3.1743
Li8MnFe7(BO3)8,3.174300000000001
RbY(TeO3)2,3.1745
RbCdF3,3.1745
ErTa7O19,3.1747000000000005
HfMgN2,3.1748000000000003
Li3Sb(PO4)2,3.175
RbY(MoO4)2,3.175
BaMgV2ZnO8,3.1750000000000003
Sm2Th8O19,3.1751000000000005
BaNa2Fe4F12,3.1752
ThTl3F7,3.1753
LiFePO4,3.1753
Li2Fe5Si5O16,3.1753000000000005
Al2GaN3,3.1754
Er3TaO7,3.1754
Ba2SrWO6,3.1754
CsSb2F7,3.1755
Ge7H18O23,3.1755
K3V(SO5)2,3.1755
Na5Bi2As5O18,3.1755000000000004
C12SF10,3.1756
Na15Ta2Zn10P9(SO8)9,3.1758
Ca2TbSbO6,3.1758
NaLi5Fe2P2(CO7)2,3.1758
FeH2SO5,3.1761
Al8SiO14,3.1761000000000004
K3Na3TeP6(HO4)6,3.1763
H3C8N2Cl3O2,3.1763000000000003
Na12Ca2Ta10Si15(SO24)3,3.1764
Li8Mn3Fe5(BO3)8,3.1764
Zr2P2WO12,3.1766
LiFeF4,3.1766
BaCaZr2O6,3.1767
BaLaCuBO5,3.1767000000000003
KNdZrSnO6,3.1768
Cs2W(OF2)2,3.1768
AlVF5,3.1768
NaMg6SiO8,3.1769000000000007
LiFeF4,3.1772
Zn2SiO4,3.1773
BaBiClO2,3.1774
Cs2NaBiBr6,3.1775
Y3Sb5O12,3.1775
SrYGa3O7,3.1775
KNdDySbO6,3.1776
Li2SiS3,3.1777
Na6Y4Sc4Si3(S3O16)3,3.1778
CaVSi4H8O15,3.1779
Na2HfZn3(SO4)6,3.1779
ZnBr2,3.178
InTeO3F,3.178
NaSrZrSbO6,3.1782
K2Ge(IO3)6,3.1784000000000003
LiFeF4,3.1787
CaYGa3O7,3.1788
H8CN5ClO3,3.1788000000000003
NaHf2In2P3(SO8)3,3.1789
MnH10C2N4O7,3.1789
Cs2NaCeBr6,3.1789
Na2NiH4(SeO5)2,3.1791
Cs2ZnI4,3.1791
Na4YGaSi2SO12,3.1791
Na2Tm2B2TeO10,3.1794
CaTeO3,3.1794
SrCaPrSbO6,3.1795
CaDy2(GeO3)4,3.1796999999999995
Na5Hf2Si3Ge2(PO8)3,3.1797000000000004
Li3Bi(PO4)2,3.1798
B10(Pb2O7)3,3.1798999999999995
Y2WO6,3.1798999999999995
P2Pb3O8,3.1799000000000004
ZnNi3(P2O7)2,3.18
CaLaGaO4,3.1802
H9C8NO2,3.1804
H6C2SN4,3.1804
Ba3V2Ni6(AsO6)4,3.1805000000000003
CrH12N3(OF2)3,3.1805000000000003
Ca8Zn3Co(Si2O7)4,3.1806
V2Zn3TePb3O14,3.1807
Na10Y4Zn4Si3(S3O16)3,3.1808
Tl2MoO4,3.1808000000000005
Mo(HO2)2,3.1809000000000003
Na7Y2Ta2Si5PO24,3.1809000000000003
Ba3LaTa3O12,3.181
NaZr2Ga2P3(SO8)3,3.181
AgHPbC2SN2O,3.1811000000000003
AsHPb4(ClO)4,3.1812
Ca2Ta4P6(SO12)3,3.1813
LiSiSbCO7,3.1814
Sr3Te4O11,3.1815
Nb2P4O15,3.1815
K2TlBiF6,3.1816
Li2Mn2Si4O11,3.1817
Ho2Hf2(MoO4)7,3.1817
MgCrF5,3.1817
LiMnPO4,3.1817999999999995
Na3WNO3,3.1819
LiMn2F5,3.1819
KGd(MoO4)2,3.1820000000000004
KEr(MoO4)2,3.1822
Rb2AuI,3.1823999999999995
HOF,3.1825
AlH16C2S2NO14,3.1825
K3Y(BO3)2,3.1826
Na6Mg4Ga4SiS11O48,3.1826
NaH3C2O5,3.1827
SbH16C4N2Cl5,3.1827
Ba3MgV4O14,3.1827
Na2Co(NO3)4,3.1828000000000003
CrH14N4Cl3O,3.1829
Ba2CaWO6,3.183
KGd(SeO4)2,3.183
RbTb(MoO4)2,3.183
K2PrAgBr6,3.1831
FeP2H24C8S4NClO4,3.1831
TiAl2O5,3.1831
Cs2LiCr3F12,3.1832000000000003
Cr(PO3)3,3.1832000000000003
ZnBr2,3.1833
HfTl8(MoO4)6,3.1835000000000004
Sr5Cr3F19,3.1836
K3GeH2NO3,3.1836
HoSbMo2O9,3.1837
K3GdCl6,3.1837
Gd2Ge(BO4)2,3.1838
H18RuC6(SCl)3,3.1839000000000004
Mo2H9C2NO7,3.1841
ZnHg2H14C4N6O13,3.1841
Li4Sn(PO4)2,3.1841000000000004
Na2Hf4Sc4Si3(S3O16)3,3.1843000000000004
SrLaCl5,3.1844
BaSm2O4,3.1846
ScH10N3O14,3.1846
LiCrP2O7,3.1847000000000003
HIO3,3.1847000000000003
Sr3W2O9,3.1847000000000003
BaH2C2O5,3.1849
Mg14TiFeO16,3.1854
CaSmAlO4,3.1857
NaSrPrWO6,3.1857
Na3CaMgCr3(SiO3)8,3.1858
Li2CrH8Cl5O4,3.1859
NaCoP2HO7,3.1859
Pr2Mo4O15,3.1862
RbTeNO3F4,3.1862000000000004
AlH3,3.1862000000000004
Li5La3Nb2O12,3.1862000000000004
Li4MnFe3(BO3)4,3.1863
Na2Al8SiS11O48,3.186300000000001
LiMgIn(MoO4)3,3.1865
Zn15Te5As2P8(Pb3O14)5,3.1867
NaNi4(PO4)3,3.1869000000000005
Nd2W2O9,3.1870000000000003
Na7Sc2Si3Ge2(PO8)3,3.1871
H4N2O3,3.1871
NaGe2(PO4)3,3.1872
K2S2O5,3.1872
Li8Fe3Sn(PO4)6,3.1872
K3YI6,3.1873
RbAl6H20N5F24,3.1874
Mn5P4(HO2)10,3.1874
Cs2KScBr6,3.1875
Na4Y3Ta(PO4)6,3.1875
LiSnPO4,3.1876
LiV2F9,3.1876
MgTi2ZnO6,3.1876999999999995
NaInGaP(SO6)2,3.1877
CaReH4ClO6,3.1878
Na10Ta4Si11Ge4SO48,3.188
Ba10P6SO24,3.188
Na3AsCl6,3.1881
Na3Y3TaP5SO24,3.1882
Li2ZnI4,3.1883
Na14Mg2Zr6Si9(SO16)3,3.1883
Zr(MoO4)2,3.1883
LiSiBiO4,3.1885000000000003
Mg2VBiO6,3.1885000000000003
KRbMn2Ga4P6(H2O7)4,3.3545
SiPb4(ClO)4,3.3546
KNaSrMg5(SiO3)8,3.3546
K3Nd2(NO3)9,3.3546
KH(IO3)2,3.3546000000000005
CsRbMo3O10,3.3547
LiMnPO4,3.3549
Na2LiMnPCO7,3.3549
Na2MgInP(SO6)2,3.3549999999999995
Cs2FeHF5,3.3551
NaSn2(PO4)3,3.3552
LiFeF3,3.3554
LiMn6P7O24,3.3554000000000004
RbLiMnP3HO10,3.3555
LiMgAlH6,3.3555
Li2FeF4,3.3555
LiFePO4,3.3557
Na2ScGaSi(SO6)2,3.3557
Na2SeO4,3.3557
LiFeF4,3.3558
GaBr3,3.3559
Y2WO6,3.3561
NaTaGeO5,3.3561000000000005
Ba4Br6O,3.3563
LiY(MoO4)2,3.3563
Cs3YI6,3.3564
Ni3(PO4)2,3.3565
Li10Mn3F16,3.3565
Na5Mg2In2P3(SO8)3,3.3568
Er3TaO7,3.3568
LiAsO3,3.3568
Na6Mg2Zn2SiS5O24,3.3569
BaLa2O4,3.357
Li2Mn3F8,3.357
NaVZnO4,3.3573000000000004
Sr4Te3(ClO2)4,3.3574
RbMn4(PO4)3,3.3576
LiFeSi3O8,3.3579
SrTeO3,3.3579
K2Mn2P2O7F2,3.3580000000000005
Li3NiPCO7,3.3582
Pb2CCl2O3,3.3583
MgH12SeO9,3.3583
Mg(IO3)2,3.3583
MgFe(SiO3)2,3.3583000000000007
SnH10C3Br3N,3.3584
Er3TaO7,3.3585
K3Rb5(Mo3O10)4,3.3587
Na14La4Ta4Si11SO48,3.3588
Ba5Tm8Zn4O21,3.359
Ca(IO3)2,3.3591999999999995
Na14Ta4Ga4Si11SO48,3.3593
SbH5(O2F3)2,3.3593
TlGeF3,3.3593
SrLa2WO7,3.3594
Zn(NO3)2,3.3595
SrCaYSbO6,3.3595
Na6TaIn3Si2(PO6)4,3.3595
Be8P8H34N8O33,3.3597
LiMnF3,3.3597
NaAlSnP2SO12,3.3598
AsPbClO2,3.36
Sr(C4N3)2,3.3602
Sr3(AsO4)2,3.3602000000000003
CsLiICl,3.3604000000000003
Mg6VCuO8,3.3604000000000003
Sn4Ge(H3C)12,3.3604000000000003
K2PrH4N5O17,3.3605
CaH2I2O7,3.3605
KCaCrH10C6O17,3.3606
Al3BN4,3.3606000000000007
Cs2CdP2O7,3.3607
Ca19(Mg4H27)2,3.3607000000000005
Na7La3ZnSi3(SO8)3,3.3608
H5C3N5O,3.3608
Na2PrCuCl6,3.361
SrTeO3,3.3613000000000004
H8C3(NO)4,3.3614
Na14Sc3Ta5(SiO4)12,3.3614000000000006
K2MgH4(I2O7)2,3.3616
CsNaTiO3,3.3618
Ba5Er8Zn4O21,3.3618
Ba6Sr11I34,3.3618
Ba2YTaO6,3.362
LiNiPO4,3.3622
NaLa5Mg4(WO6)4,3.3623
Li2Mn3F8,3.3624
YbMoO4,3.3624
HgCS(OF)3,3.3625
CaVSi4O11,3.3626
K2RbAlBr6,3.3626
NaLa2Al2PS5O24,3.3626000000000005
Na7Ca2Zr2SiP5O24,3.3627
Na6TaGa3Si2(PO6)4,3.3629
LiFePO4,3.3629
Na2Ti2O5,3.3631
K2Zn2(MoO4)3,3.3633
K2RbSbCl6,3.3633
CsNa2Fe3P4ClO14,3.3634
Na14Hf4Mg4Si7S5O48,3.3637
VOF3,3.3637
Ca(H8O5)2,3.3637
SrZrO3,3.3637000000000006
NaNdHfSnO6,3.3638
H9C3SeN3,3.3638
Zn3S2O9,3.3639
Na3TaGaSi2PO12,3.3639
Na2AlFeF7,3.3639
Na4ZnGa(PO4)3,3.3640000000000003
Ba5Ho8Zn4O21,3.3641
Sb4H2SO10,3.3641000000000005
PbCO3,3.3642
Na2La2Al2SiS5O24,3.3643
Sr(H8O5)2,3.3644
Rb3HoV2O8,3.3645
La3In2(GaO4)3,3.3646000000000003
CoP4O11,3.365
K6Zr3H8(OF)12,3.3651
Rb2MgH4,3.3651
Ba3B3Pb2ClO9,3.3652
H10C5NO6,3.3653
Li6Mn3(PO4)4,3.3653000000000004
Ba5Dy8Zn4O21,3.3654
Li2Cr(PO3)4,3.3655
K2Ta4O11,3.3655
CsRb3(Mo3O10)2,3.3657
Si2H2S3,3.3657
LiMn4(PO4)3,3.3657000000000004
Li3TeHO4,3.3658
CsLa3O5,3.3658999999999994
LiFeF4,3.3661000000000003
CsBeH3,3.3661000000000003
Ba8SrCa3(WO6)4,3.3662
Ca(H8O5)2,3.3662
Na10Al4Zn4Si3(S3O16)3,3.3662
Lu3TaO7,3.3662999999999994
K2YInF6,3.3664
Sr2GdSbO6,3.3665
Mg3V2O8,3.3666
KPrHfSnO6,3.3667
CaMg14ZnO16,3.3667000000000007
K4Ti2H2O5F8,3.3668
Sm(C2N3)3,3.3669
Mg6ZnSnO8,3.3669
Li2BiAsCO7,3.367
Na6Hf2Mg6SiS11O48,3.3671999999999995
LiSnPO4,3.3675
BaSrCaWO6,3.3675000000000006
LiMnPO4,3.3679
ThH28C12(N2O3)6,3.3679
Ba2ZnWO6,3.3679
Gd3Al5O12,3.3681
InH10C2SeCl3O2,3.3684000000000003
BaSrCaWO6,3.3685
Na6Y4Si3(SO8)3,3.3685000000000005
NaZr2Sc2P3(SO8)3,3.3687
K2RbHoV2O8,3.3687
RbInPHO5,3.3688
Ca2ZnAs2(H2O5)2,3.3688
Na6W10O33,3.3689
K2RbTmV2O8,3.369
AlH36C12S6(IO2)3,3.3691
Na3Li3Fe2P2(CO7)2,3.3693
LiSn2P3O10,3.3694
Al3CrO6,3.3694000000000006
BaSr2I6,3.3694000000000006
LiVF4,3.3696
Ba3SrTa2O9,3.3696
K3Nd(BO3)2,3.3697000000000004
Sr2PrTaO6,3.37
K3RbMn2F12,3.37
K2Ti(SiO3)3,3.3701
Li2Co(Si2O5)2,3.3704
La3H15I10O37,3.3704
Na5LiMn2P2(CO7)2,3.3704
SrMg6ZnO8,3.3705000000000003
Nd3NCl6,3.3706
Ni2P2O7,3.3708
Sb11F43,3.3708
AlH12(NO5)3,3.3708
Te(S2O7)2,3.3708
MgMn2P2(H2O5)2,3.3709
Ba2TbTaO6,3.371
GdMoO4F,3.371
Li3Sb2(PO4)3,3.371
Cd(C4N3)2,3.3710000000000004
Na5ScTa3Si5PO24,3.3711
Na3H5(SeO4)4,3.3712
Na7Al2Si3Sn2(PO8)3,3.3712
Rb4Mo5(PO11)2,3.3712
K2Pt(CN)4,3.3713
GaBPbO4,3.3713999999999995
BaSrNiWO6,3.3716000000000004
K4Mo2H6S2O9,3.3717
Na6Y2Sc2Si3(SO8)3,3.3717999999999995
CaSi2SnO6,3.3719
Na2LiTlF6,3.372
Ca11Al14O32,3.3720000000000003
Tb(NO3)3,3.3721
RePbClO4,3.3721
KFe4(PO4)3,3.3722000000000003
SrCa3O4,3.3723000000000005
Na8MgZr3Si5SO24,3.3726
Sr3Li6Nb2O11,3.3726
SrTeO3,3.3726
BaCaDySbO6,3.3728
H3CI,3.3729
LiSmO2,3.373
Li3InCl6,3.373
Ba3Y4O9,3.373
LiMnPO4,3.3731
YIn(SO4)3,3.3731
NaZn3H3S2O9,3.3732
KSm(MoO4)2,3.3732
H3CO3,3.3732
LiMnPO4,3.3732000000000006
LiFeF3,3.3735
LiFePH2O5,3.3735
Na5Zr2Ta2Si5PO24,3.3735
Ba2LaPaO6,3.3736
MgZrN2,3.3736
NdTaO4,3.3739
Na4ZnIn(PO4)3,3.3739
LiNiPO4,3.3739000000000003
Rb4WS3O14,3.3741
NaPr(SeO4)2,3.3741000000000003
Ba3W2O9,3.3742
H4CSN2,3.3742
K2RbLuV2O8,3.3743
La3GaGe5O16,3.3745
Sb2SNF11,3.3745000000000003
Si6Sb2H36(C4O)3,3.3746
GdOF,3.3747
LiNiPO4,3.3747
Na4WO5,3.3748
SrCaPrSbO6,3.3749
Na3ScBr6,3.3749
BaCaYSbO6,3.375
Sr2InBr5,3.3753
MnSeO3,3.3754
Na4AsHO5,3.3754
H2C3O4,3.3756
CaTe2O5,3.3756
LiBi2P3O11,3.3756
Li2Mn3F8,3.3757
Na6TaAl3Si2(PO6)4,3.3758
H9C2(NO)3,3.3759
AsO2,3.3759
LiMn2P2HO8,3.3759
BaB4(SbO6)2,3.375900000000001
Na3Li3Fe2P2(CO7)2,3.3760000000000003
LiMgH6Ir,3.3760000000000003
InGe2P(H3C)8,3.3761
Li3NiPCO7,3.3762000000000003
K2LaBr5,3.3763
CsMg30BO32,3.3763999999999994
Li2SiNiO4,3.3765
Cs2SiO3,3.3766
Li5Sm3(SbO6)2,3.3766000000000003
Ni2P2O7,3.3769
TeH12(Cl2O3)2,3.3771
H12C6S(N5O3)2,3.3772
Li2Mn3F8,3.3773
Ba3NaGd3(Si3O10)2,3.3773
CaVP2O7,3.3774
NaMgIn3(SO4)6,3.3775
Ba2ErSbO6,3.3776
LiP3W2O13,3.3778
H2NO2,3.3779
Li12MnFe3P4(CO7)4,3.378
LaAlO3,3.378000000000001
Ba2HoTaO6,3.3782
BaSm2(MoO4)4,3.3785
CoP2H13C2NO9,3.3787
Sc2(SeO4)3,3.3788
Li7Ho3(MoO4)8,3.3789
Na4InGaSi(PO6)2,3.3791
Na5Hf2Ta2Si5PO24,3.3791
Na3Al(AsO4)2,3.3791
Tm3TaO7,3.3792
Li4Ge9O20,3.3793999999999995
SnH4SNO4F,3.3794
Na2Hf4Al4Si3(S3O16)3,3.3794
Sb3H18C6N,3.3794
NaZrGaSi(SO6)2,3.3795
Nd6Al7Si5N3O25,3.3797999999999995
InSeClO3,3.3797999999999995
NiH48C16S8(NO7)2,3.3798
Rb3SbCl6,3.3798
Cs2NdAgBr6,3.3798
K3SiN(OF2)3,3.38
Na6Sc8Si3(S3O16)3,3.3801
Na2AlCr(P2O7)2,3.3801
Na7Hf2Si5Sn2PO24,3.3802
Li2Zr2O5,3.3803
P2Pb3O8,3.3803
LiVN2,3.3806000000000003
MgSnP2O7,3.3807
Tm2GeO5,3.3808000000000007
MnH2SO4,3.3809
Li2Mn3F8,3.3809
Na15Ca2Ta10Si15(PO24)3,3.3809000000000005
NaZrTaSi2SO12,3.381
Ba3Zn2B3O9F,3.3811
H9C3IN6O,3.3812
LiBi3(P3O10)2,3.3813000000000004
CsRbMnF6,3.3815
Ca(H8O5)2,3.3815
TaF5,3.3817
Na6Zn4SiS5O24,3.3817000000000004
SnF2,3.3819000000000004
Na8MgZr3Si4(PO12)2,3.3822
Na2Ga2Si(SO6)2,3.3822
Lu3TaO7,3.3822999999999994
ZnFe(Si2O5)2,3.3825000000000003
RbMgCrF6,3.3825000000000003
Rb3TmV2O8,3.3826
CsRb2SbCl6,3.3826
H7NO6,3.3826
Na3YZnSi(SO6)2,3.3827
MgNi2(PO4)2,3.3828000000000005
KNa3Al4(GeO4)4,3.3829
Li16Nb2N8O,3.3829
LiAl(GeO3)2,3.383
LiMnF3,3.383
MgNi(WO4)2,3.3831
NaCaZrSbO6,3.3831
H2SeO4,3.3831
Na9TaZn5P6(SO12)3,3.3831999999999995
Cs2MnF6,3.3832
LiMnPO4,3.3834000000000004
KVPbO4,3.3834000000000004
SrCaI4,3.3835
K2VPO6,3.3835
NbAlO4,3.3835000000000006
KPb2Cl5,3.3836
LiNiPO4,3.3836000000000004
Ba2DyTaO6,3.3837
LiFeF3,3.3838
RbTeNO3F4,3.3838
LiFeWClO4,3.3841
CaH8(NO5)2,3.3842
Na14La8Si7S5O48,3.3842
Mg3WO6,3.3842000000000003
Na14Ta4In4Si11SO48,3.3843
K2RbYV2O8,3.3843
CuH22C8N10O,3.3843
Pr2B2MoO9,3.3843
Li4Fe3P3O12F,3.3844
SrLaCl5,3.3844
InAsF6,3.3845
Na8Zr2In2Si5SO24,3.3846
Ba2Ca7I18,3.3846
Li2S,3.3847
BAsPbO5,3.3847
Sr(H8O5)2,3.3847000000000005
AcScO3,3.3847000000000005
Nd(AlBr4)3,3.3848000000000003
KAsO3,3.3848000000000003
NaSmGeO4,3.3848000000000003
SrCa2(TeO3)3,3.3849
H12C4S2N2O5,3.3849
NaHfTaSi(PO6)2,3.3849
BaAg(PO3)3,3.3851000000000004
H4CN5Cl,3.3852
NaZnGa3(SO4)6,3.3853
LiMnPO4,3.3854
Na6Ta3Al(SiO4)6,3.3854000000000006
Fe4P3H4NO12,3.3855000000000004
Na2Pd(NO3)4,3.3856
CsTa(PO4)2,3.3857000000000004
Sr2LaSbO6,3.3858
AlH16(C3O7)2,3.3858
NaBe4SbO7,3.3858999999999995
Si3As(H3C)9,3.3859000000000004
MnH11C5NO6,3.386
Cd(BO2)2,3.3861
MgMnB2O5,3.3863
LiFePO4,3.3863000000000003
H4N2O3,3.3864
Li3SbF6,3.3865
Dy2YTaO7,3.3865000000000003
C2N2O5,3.3867000000000003
Rb3TbV2O8,3.3869
Li3Cu2(SO4)3,3.3870000000000005
Sr2NiSe2(ClO3)2,3.3870000000000005
RbNd(WO4)2,3.3871
Mg2CdH24(BrO2)6,3.3871
CaRe2H6C(NO5)2,3.3871
Li8Mn3Cr(PO4)6,3.3873
Na14Zr4Ga4Si9(SO16)3,3.3874000000000004
ZrCdH10C6O17,3.3874000000000004
Li4VF6,3.3875
Cs2Ti(PO4)2,3.3875
H16AuC6S2N4ClO4,3.3875
ZnN6,3.3876
K3SbCl6,3.3878
BaSr2I6,3.3879
AgH11C4(SO)3,3.388
Na3HfSi2SnPO12,3.3881
Li3TlF6,3.3885
RbLi2Ga2(BO3)3,3.3885
KMnGa2P3(H2O7)2,3.3886
LaTaO4,3.3887
KRbMg14O15,3.3888
Ba2SrI6,3.3889
K3In(PO4)2,3.3889
Na3In2(PO4)3,3.3889000000000005
BaSe2O5,3.3889000000000005
NaNO,3.389
LiSb4P7O24,3.389
LiMnPH2O5,3.3891
SrCaNdSbO6,3.3892
Te2O3F2,3.3892
Ba3SrZn2(WO6)2,3.3892
Na4Y2Hf2Si3(SO8)3,3.3894
Sm3TaO7,3.3894
Mg30CdNiO32,3.3895
H7NO6,3.3896
Li2FePHO5,3.3896
Na5Gd(MoO4)4,3.3896
Ba3Sr(CO2)8,3.3898
Tl3PbCl5,3.3898
LiFePO4,3.3899
H7NO6,3.3899
Fe2C8SO10,3.3901
Na10TaGa7(PO4)12,3.3901000000000003
Li2MnF4,3.3902
Li2V2(SO4)3,3.3902000000000005
Li2Bi(BO2)5,3.3904
LiMgAsO4,3.3904
NaTa2SiSn2P5O24,3.3905000000000003
AsClF8,3.3906
Cs3SbF6,3.3907
CaCr(Si2O5)2,3.3907000000000003
CsRb2SbF6,3.3907000000000003
PrGaO3,3.3909
Rb3ErV2O8,3.3909
LiNiPO4,3.391
LaTaTiO6,3.3911
CaGeO3,3.3911
ReH22C4S4N8Cl8O3,3.3911999999999995
MgH2(SeO4)2,3.3914
Na6Sc3TaSi2(PO6)4,3.3915
Cs2ScAgCl6,3.3916
LiBiB2O5,3.3916000000000004
NaTaAl(PO4)3,3.3918
CsTm(WO4)2,3.3918
MgScBO4,3.3919
Rb3DyV2O8,3.392
LiMnPO4,3.392
Na2LaZnP(SO6)2,3.3920000000000003
Y2Th8O19,3.3923
SiS2,3.3924000000000003
Li2Fe(SiO3)2,3.3925
Li5B7S13,3.3927000000000005
CsRb2GaCl6,3.3928000000000003
Na7Y3MgSi3(SO8)3,3.3929
B5H7,3.3929
Cs2KSbCl6,3.393
H2SeO4,3.393
BaAlGaO4,3.3931
CdH16C4(NCl2)2,3.3931
SmH12(NO5)3,3.3931
Mg14CdCoO16,3.3934
BaCaI4,3.3934
Ba2ErTaO6,3.3934
BiCl3,3.3934
NbOF3,3.3938
Ga4HCl6,3.3938
Pr2NCl3,3.3939
AgH8C3S2ClO4,3.3939
SrGaH5,3.3941000000000003
TmIO,3.3943
BaSrNbInO6,3.3943
Na6Al4Si3(SO8)3,3.3944
Na3TaSi3GeO12,3.3945
KRb2GaCl6,3.3948
CaSe2O5,3.3948000000000005
CsH3(SeO4)2,3.3949
K2CaAs2O7,3.3949
AlH18(NO6)3,3.3950000000000005
Na5LiMn2P2(CO7)2,3.3952
Li2FeF4,3.3952
CoP4(H5O8)2,3.3954
SnH20C7IN,3.3954
NaIO3,3.3955999999999995
K3NbAs2O9,3.3956
Li2Fe3F8,3.3957
LiBi3(PO5)2,3.3957
ReH6CN3O4,3.3959
Ba2LiTbSnO6,3.3960000000000004
Li2FeSiO4,3.3961
Li2SiNiO4,3.396100000000001
GdGaO3,3.3962000000000003
Li2Cr(PO3)5,3.3963
LiSbP2O7,3.3963
Ce2(WO4)3,3.3964
BaSrZnWO6,3.3966000000000003
Li2Mn(SiO3)2,3.3968
Sr(IO3)2,3.3968
Mg14NiCO16,3.397
K2ScTlCl6,3.3972
Na3TaAlSi2PO12,3.3973000000000004
LaP3H3WO9,3.3974
LuNbO4,3.3974
Li4AlCr3O8,3.3975
C2NClO,3.3975
Y2GeO5,3.3976
BaLi4O3,3.3976
Tb3TaO7,3.3976999999999995
RbPrO2,3.3978
SiO2,3.3979
K3In(PO4)2,3.398
SnPHO4,3.398000000000001
Ba2ScPaO6,3.3981000000000003
K2H2C2O5,3.3984
NaGd(PO3)4,3.3984
H4CSN2,3.3985000000000003
Na15Ta11Zn(SiO4)18,3.3985000000000003
Ba6Gd2Ga4O15,3.3986
KNaTiSi3(HO5)2,3.3986
Al8Zn3CoO16,3.3987
K2Be(CO2)4,3.3987
Na10Hf5Zn3Si6(SO8)6,3.3987
NaMg14FeO16,3.3989
LiAlSe2,3.3989000000000003
SmH13C8N6O13,3.3989000000000003
Li2B5SbO10,3.399
H18RuC6S3N3ClO3,3.3993
PCN2Cl3,3.3996
BaCaSmSbO6,3.3997
PbS2O3,3.3998
Li5LaO4,3.3999
K4Mn2H16S4O23,3.4
Na6La2Sc2Si3(SO8)3,3.4
K2NiP2O7,3.4003
NaHfTaSi2SO12,3.4003
NaCaAlFe(SiO3)4,3.4003000000000005
ZnH24C6(N7O6)2,3.4005
Si11(H3C)21,3.4006
SnH12C6S2(NO)2,3.4006
NaZrTaSi(PO6)2,3.4006000000000003
Sr2CoSi2O7,3.4006000000000003
K2TeH6SeO10,3.4008
BaLaCl5,3.4009
Na14Zr4Si11Ge4SO48,3.4009
LiBH4C2(O3F)2,3.4009
CsHS,3.4011
VOF3,3.4012
LiMnF3,3.4012
NbGaO4,3.4012
CaC2(SN)2,3.4012
Rb3H(SeO4)2,3.4013
Ca2Al2O5,3.4014
Li16Ta2N8O,3.4017
MgMn(SiO3)2,3.4018
Na4AlSi2SnPO12,3.4021
Cs2CaV2O7,3.4021
K5Mo8As(H3O16)2,3.4022
CsLa2Br7,3.4023
BaSrCaWO6,3.4024
HoWClO4,3.4026
MgNiO2,3.4026000000000005
Mg6ZnFeO8,3.4026999999999994
CsTa(BO3)2,3.4027
Rb3In(PO4)2,3.4028