formula,band_gap (MP)
LiVCoO4,1.4663
FeSCl7,1.4664
Li5Mn2CoO8,1.4664
MgAlCu(WO4)2,1.4665999999999997
YSbO3,1.4667000000000003
Ba3BPO3,1.4667000000000003
Te4Mo3WS4,1.4667999999999997
Mn5SnO12,1.4668
LiAgF2,1.4668
VO2F,1.4668
K2NaTi2Fe7Si8H4O31,1.4669999999999996
V3(HO4)2,1.467
LaFeO3,1.4671999999999996
NaMg3V3Cr3Si6B3H3O31,1.4672
Sr5(SnN3)2,1.4672
TlN2Cl5O,1.4672000000000005
NaAl6Sb7(TeCl3)8,1.4673
LiLa4CoO8,1.4673999999999996
Na2MnN2,1.4673999999999998
Li4Ti4VCr4O18,1.4674
BaGe4(RhS3)2,1.4674000000000005
Hf(TlS)4,1.4675000000000002
Ni5SbH17C15NO9,1.4675999999999998
BaSm2CoO5,1.4676
LiCoSiO4,1.4676
Sr2Fe2S2OF2,1.4676999999999998
MgFe4CoO8,1.4676999999999998
K2MgFe4P6(O4F3)4,1.4676999999999998
SbSe5F6,1.4677
MgFe2BO5,1.4680000000000004
Na2PtO3,1.4682000000000004
Hg2PCl2,1.4683
Mo(BrO)2,1.4684
IN2O4F5,1.4687
Na6Mg(CoO3)2,1.469
KS,1.469
IF7,1.4690999999999996
Er2S3,1.4691
Li5Fe4(Si3O10)2,1.4691999999999998
BaNiO3,1.4691999999999998
BaSrMg(FeO2)4,1.4692999999999998
Li5V3Cu(PO4)4,1.4693000000000005
Cs2Ba2O3,1.4695
Mg(Fe2O3)2,1.4695
BeAlPt2,1.4695999999999998
K2(ReS2)3,1.4695999999999998
Na3Zn2(MoO4)3,1.4695999999999998
MgFe6(OF)6,1.4695999999999998
Cs2AgSbS4,1.4696
NaSbO3,1.4696000000000002
Li3MoP2O9,1.4696000000000002
Cs2AlAgBr6,1.4697
Li6V3P8O29,1.4697000000000002
La2Mg(CoO3)2,1.4698000000000002
LiAlVO4,1.4698000000000002
LiCo2OF3,1.4698000000000002
AsIrSe,1.4699
Na3LaTi2Nb2O12,1.4699
CsIn3O5,1.4700000000000002
Li2CrO2,1.4700000000000002
Tl5SbO5,1.4702000000000002
ZrNi5(BO5)2,1.4703
UCr(HO2)3,1.4703
MnH8C2NCl3,1.4703
Sr4MgFe4O11,1.4703000000000004
CdGe2O5,1.4703000000000004
Na18Nb20Zn4Si27(SO16)9,1.4703999999999997
WO2,1.4704000000000002
MgFe4(OF)4,1.4704000000000002
Ho9B5S21,1.4704999999999997
Ba5(GeN3)2,1.4705
KYb2Cl7,1.4706
V2(OF)3,1.4706
RbAuN12,1.4708
Li9Mn2Co5O16,1.4708
Sr5(SiN3)2,1.4708000000000006
ZrBrN,1.4709
PrCu(WO4)2,1.4709
K2U2O7,1.4709
Rb2AlAgBr6,1.4709
Tm2Pt2O7,1.4709000000000003
Li5Fe8(BO3)8,1.471
SrMg30VO32,1.471
Na2CaSnP2SO12,1.4712999999999998
LiCu(PO3)2,1.4716
Li3V3O5F3,1.4716
Li4MnP2O9,1.4716000000000002
La2ThS5,1.4718999999999998
SbTe2SeF6,1.4718999999999998
Ga8Sb7Te8Cl29,1.4718999999999998
Yb4Mg4Fe3H22,1.4719
CsAgO,1.4719000000000002
V4(OF3)3,1.472
K4Nb2S10O,1.472
Sm5AgSe8,1.4720999999999995
BaMg6SiO8,1.4722
TbCu(WO4)2,1.4722
Sr2MnTeO6,1.4722
K2NaMoBr6,1.4722999999999995
NaMnO4,1.4723
MgFe2(HO2)2,1.4723000000000002
RhC2IO2,1.4724
Y4Fe13Si2(SbO14)2,1.4724
Li4Fe(WO4)3,1.4726000000000004
BiOF3,1.4727
K5Na3Ta2Nb6O24,1.4727
MgNi2(BiO3)2,1.4727000000000006
Ca2MnSbO6,1.4728999999999997
YTlO2,1.4729
MgV2O4,1.4729000000000003
BiIO,1.473
RbHo2Cu3S5,1.4733
TlInHgS3,1.4733999999999998
NaAuCl4,1.4733999999999998
Cs2Au2Se3,1.4734
Na6Y6Ta2Si5S7O48,1.4735
K5Na3TaNb7O24,1.4735999999999998
LiFe2(PO4)2,1.4736000000000002
Fe2Te4O11,1.4736999999999996
Li5Fe8(BO3)8,1.4737
Rb2AgIrF6,1.4737
RbNd(ClO)4,1.4738
RbNaCa2Nb4O13,1.4739
MgSn8(P2O9)2,1.4739000000000004
Os3C8SO8,1.474
K6Mg(BiO4)2,1.474
Li2TiFe2O5,1.4740000000000002
Cs3Sm7Se12,1.4741
Ho3ReO8,1.4741
Er9B5S21,1.4741
Os(OF2)2,1.4741
K2Li3NiO4,1.4741000000000002
Li(MoO2)2,1.4741000000000004
Y2ScN3,1.4741999999999995
SnCNCl3,1.4742
MgSiAs2,1.4742000000000002
LaGeP(SO6)2,1.4744
InCl,1.4744000000000002
MgFe2(CoO2)4,1.4744999999999997
Na2AlAgBr6,1.4745
Li2VCoO4,1.4746000000000006
NdNi(BO2)5,1.4747000000000003
LiFeOF,1.4747999999999997
Na6MgV2(S3O)2,1.4748
LiTiVO4,1.4748000000000006
Ba5(TiN3)2,1.4748000000000006
BaMgZn(FeO2)4,1.4749
MoC4(O2F3)2,1.4749
MgV2Bi2(PbO5)2,1.4749999999999996
MgTeO4,1.4750999999999994
LiAgC2,1.4751
MnBiO3,1.4751000000000003
LiFe4(BO3)4,1.4752000000000005
LiVP2HO8,1.4752999999999998
TiMn4O10,1.4752999999999998
Mg3Si4(MoO7)2,1.4753000000000007
Ca(FeO2)2,1.4754
LiFe2(BO3)2,1.4756
MgV2(PO5)2,1.4756000000000002
NbBi4BrO8,1.4756999999999998
Ba2LiY2(Fe2O5)2,1.4756999999999998
Sc4S3N2,1.4756999999999998
Rb2NaMoBr6,1.4757000000000002
Sr2GdVO6,1.4759000000000002
Li2VFe3O8,1.4759000000000002
Tb4Te3N2,1.4759000000000002
Cr3O4,1.4759999999999995
KNbO3,1.4759999999999998
Ca2SnWO6,1.476
Bi24Br10O31,1.476
Mg2Mn3O8,1.476
NdCuTeO,1.4760000000000009
InSbS3,1.4760999999999995
H2WO4,1.4761
CrCl3O,1.4763
Na3CoO3,1.4763000000000002
Cu2SO4,1.4764000000000004
Na6Sc4Si5Ge4S7O48,1.4765
UPH10C4(NO4)2,1.4765
MgFe8(OF)8,1.4766
Ca2SbWO6,1.4767
AlCrFeO4,1.4767
InNiAg2F7,1.4768
VFe3(PO4)4,1.4768999999999997
Mg(InTe2)2,1.4769
La2MgFe2(TeO6)2,1.4769999999999994
K2PtBr4,1.477
K2Gd2Mg(MoO4)4,1.477
Lu2MgSe4,1.477
KPPdS4,1.477
In4SnS4,1.4770000000000003
MgV4(O2F)4,1.4771
Na6Ga4Si5Ge4S7O48,1.4771999999999998
RbAuBr4,1.4772
Ba3DyUFeO9,1.4773
BaSrGdBiO6,1.4773
Ho5Mg(MoO6)2,1.4773000000000005
Sm12Sn(GeS7)4,1.4773999999999998
Li10Co4O9,1.4774000000000005
Ba2LiV2(Si2O7)2,1.4775999999999998
Sb2H12Pd(CCl)4,1.4775999999999998
Li2VO2F,1.4776999999999996
Ba5Lu8Ni4O21,1.4777000000000005
V2OF4,1.4777999999999998
LiV2BO5,1.4777999999999998
RbCa2Nb3O10,1.4777999999999998
CsMg30BO31,1.4778000000000011
Rb3FeO3,1.4779
Sr2La2Cr3MoO12,1.4779999999999998
TeAsXeO2F11,1.478
Ta3H20C4Br8NO4,1.4781
CaLaMnFeO6,1.4781000000000004
Ba6La2Co4O15,1.4781999999999995
Pr3Se2NO,1.4782000000000002
Os6C17SO17,1.4785
K2SnHgSe4,1.4785
CsPbI3,1.4785
V3O2F5,1.4786
YH8C2S2NO9,1.4786
LiFe6O7F5,1.4787
SrHgAs2O7,1.4788
Li4Ti4Mn4NiO18,1.4788
Na4CaSiSn(PO6)2,1.4788
MgAl4(HO)12,1.4789000000000003
Li5V2OF11,1.479
K2U3MnO11,1.479
Rb2ScCuF6,1.479
Sm2SiTeO4,1.4791
LiVGaO4,1.4791
Zn(FeO2)2,1.4791000000000003
LiV2O2F3,1.4792999999999998
BaSc3AgS6,1.4793999999999996
Na8Ca3Si3Sn(SO8)3,1.4794999999999998
BaNa4O3,1.4794999999999998
Li5Ti2Mn3O10,1.4794999999999998
GdPS4,1.4795000000000005
Li2SnSe3,1.4796999999999998
Co8C24(SO7)3,1.4797
GeAsSe,1.4797
LiTi2VO6,1.4798
MgCo4(Te2O5)4,1.4798999999999998
MgCd2(WO4)2,1.4800000000000004
Li4Y3VO8,1.4801000000000002
RhSCl5,1.4803000000000002
Ho2MgV2O7,1.4803000000000002
V2(OF)3,1.4803000000000002
Li3VO3F,1.4804
Sr3CaCN4,1.4804000000000004
Li2VO2F,1.4806999999999997
Fe8H10O17,1.4807
Li4Ti3Nb2Ni3O16,1.4810000000000003
Na30Nb16Zn8Si27(SO16)9,1.4811
Na4MgCr2O8,1.4811
NbBi4BrO8,1.4811
CeTh4O10,1.4813
Na2Sn4O9,1.4813
Ca2PbO4,1.4813
Tm2MgS4,1.4815
FeBO3,1.4815999999999998
AsC4S4N4Cl2O2F5,1.4816
ErHSe,1.4817000000000005
MgFe2(OF)2,1.4818000000000002
Hf7Tl18Pb2S25,1.4819
Cs2NaGaP2,1.4820000000000002
Na4Y2Ti2Si3(SO8)3,1.4821
Na2H5RuN5O12,1.4821
Cu3P4(SBr)3,1.4822999999999995
LiTeHO4,1.4823
DyTlO2,1.4823999999999995
Cs2PSe5,1.4824000000000002
ZnP4W3O14,1.4825
K2NaMnO4,1.4825
Ho3ReO8,1.4825999999999997
Ca2Sb2S5,1.4826
Fe15O16,1.4826
SrPrDyNiO6,1.4826
Li9Mn2Co5O16,1.4826
CaNCl3,1.4827
CsMnCl3,1.4829
K2In3AgSe6,1.4829
AsS3(NF3)2,1.483
Na2Ti4Si3(SO8)3,1.483
Mg2TeS,1.4830999999999994
Cs2Zr(AgTe2)2,1.4831
NiO2,1.4831
Li2MnSO4F3,1.4832
HBr,1.4833
Y3ReO8,1.4834
CrHg5S2O5,1.4834
Ag2INO3,1.4835
Ti2Si7H42C14(Cl3O)2,1.4835
ErTl(PSe3)2,1.4836
Mo4P5O24,1.4836
Mg(InTe2)2,1.4837000000000002
Zn7P10,1.4837999999999996
BiPS4,1.4838999999999998
MoPCl8O,1.484
Li6V3P8O29,1.4841
Hg2P2O7,1.4841999999999995
K4Mg(MoO4)2,1.4842000000000002
FeAg(MoO4)2,1.4844
Fe3(SiO4)2,1.4844999999999997
Cs3BAs2,1.4845
TlHO,1.4845000000000002
Sr2MgFeO4,1.4848
LiCo(PO3)4,1.4848
Na8Mg(CoO4)2,1.4848
Ce3Y4O12,1.4851
Na10Ti4In4Si7S5O48,1.4854000000000005
MgMo2(HO2)4,1.4856000000000005
LiScS2,1.4856999999999996
V4OF11,1.4857
MoS2,1.4858000000000002
LiFe2(BO3)2,1.4858999999999998
Fe5(OF4)2,1.4859
KGeCl3,1.4859
BiC4S2Cl3O2,1.486
V4OF11,1.486
K2LiMoCl6,1.4862
Ta2Sn2O7,1.4862000000000002
Ni(PO3)2,1.4862999999999995
B3H7N,1.4863
Li9Mn2Co5O16,1.4863
CsAuN12,1.4864000000000002
Li9Mn2Co5O16,1.4864000000000002
BaNb6HO16,1.4865000000000002
Cs4Rb2Fe2O5,1.4865000000000002
TiFeO3,1.4865000000000004
Ca(SbO2)4,1.4866
Ba2Ca(PdO2)3,1.4866
BC24Br(NF2)6,1.4867
Cs5As(PSe3)4,1.4867
LiMn2OF3,1.4867
Na5Cu(HO2)2,1.4867
Li2CuPO4,1.4867000000000004
K4CoMo4O15,1.4868
Li2V2P7HO24,1.4868
LiCoSiO4,1.4868
MgV2Zn4O8,1.4868
Li9Mn2Co5O16,1.4869
VPb2N3,1.4869
SrLa11Mg3Ga9O34,1.4869000000000003
LiCoSiO4,1.487
CuBSe2,1.487
MnH21C7S3N,1.4871000000000003
LiMn2OF3,1.4871000000000003
Li4Ti4MnCr4O18,1.4871999999999996
Ba2La3Ti2Cr3O15,1.4871999999999996
GdSI,1.4872
Ba(YSe2)2,1.4872
Ba(SbS2)2,1.4872999999999998
Ce6Y26O51,1.4873000000000005
TiCo3(BO4)2,1.4874
Na10Zn4O9,1.4874
Y(SnO2)2,1.4874999999999998
CsRe(Cl2O)2,1.4875
Li3Ni5OF11,1.4875
LiVCr(P2O7)2,1.4875
KP(HO)4,1.4875999999999998
Ce(IO3)4,1.4876
DyHSe,1.4876999999999994
LiMnSi3O8,1.4876999999999998
H9Au(ClO)4,1.4877
ZnP2WO7,1.4878999999999998
Cr2AgBiO8,1.4879999999999998
Cs2MgMnV2(ClO3)2,1.4879999999999998
LaSF,1.488099999999999
Nd5AgSe8,1.4881000000000002
La3LuBeS7,1.4881000000000002
Na2B2Se7,1.4882
UO3,1.4882
La3(MoO5)2,1.4882
FeH7(CO2)4,1.4882
Tb3CuSiSe7,1.4882
Fe4OF7,1.4884
YCo3Se2ClO8,1.4884999999999995
Li2Ti3CoO8,1.4884999999999995
Fe2H3F2,1.4885000000000002
K2MnP2H2(O4F)2,1.4885000000000002
HoTlS2,1.4885000000000002
Fe4Co(BiO3)5,1.4885000000000002
Zr6BCl14,1.4886
Na3Np(HO3)2,1.4886
Rb2B2Se7,1.4887
AlW3Se2ClO8,1.4888
Sb6H3CCl13O10,1.4889
Hg5(SeO4)2,1.4889
Li6V3P8O29,1.489
NaCa3Fe4(SiO3)8,1.4890999999999996
Sm2TeO2,1.4893
Cs3VSe4,1.4894
KMgAg2SbS4,1.4894000000000005
Na2AgAsCl6,1.4895
Rb3CrO8,1.4896
SrU2As2(H2O3)4,1.4896
Na6In4Si5Sn4S7O48,1.4896000000000005
HgH2SeO5,1.4897
Y4Mg(BiO3)4,1.4897999999999998
UH16C6Se(NO2)4,1.4899
Li3V2(NiO4)2,1.4901
Na2Ga4SiS5O24,1.4901999999999995
TaVZn2O6,1.4902000000000002
Ca(VN2)2,1.4902000000000002
CsDy2Cu3S5,1.4902000000000006
Li4TiFe3O8,1.4904
In2BiSe4I,1.4904000000000002
SiO2,1.4904000000000002
LiVFeP2(HO5)2,1.4905
K4MnO4,1.4906
Na6La5Nb3Si6(SO8)6,1.4906
Fe2OF3,1.4906
AlW3O8,1.4906999999999997
Ho(CuS)3,1.4907000000000004
SbTe7SXeCl(OF4)9,1.4909
HgCN2Cl2O,1.4909
NaLa(GaSe2)4,1.4909000000000003
Li7Mn2(CoO4)3,1.4909999999999997
Dy3CuSnS7,1.4909999999999997
VBrO,1.4911
Zn2SeS,1.4911
NaSb3O8,1.4912
Ta2SnO7,1.4912
NaMg2Sn2PS5O24,1.4912
Rb4MgH12(SeO3)8,1.4912999999999998
NaCaAlOF6,1.4912999999999998
Li2TiO3,1.4913000000000003
Fe2OF3,1.4915
Hf2N2O,1.4915000000000005
La2Ti3CoO10,1.4916
MgVZn2WO6,1.4916999999999998
Li4Cr2Ni3Sn(PO4)6,1.4918
Yb(TmS2)2,1.4918000000000005
Li7Fe7SiO16,1.4919
Na2Nb4Ga4Si5S7O48,1.4920999999999998
BaScCu3Se4,1.4923
NaLaNb2O7,1.4924000000000002
LiMn2OF3,1.4924000000000002
MnH12C2(NCl2)2,1.4927
Na3ZnGe(PO4)3,1.4929
BaMg6AlO8,1.4929999999999994
Ca2CoWO6,1.4930000000000003
Fe5(OF4)2,1.4931
Li6Cr2O7,1.4932
Na30Ca20Nb4Si9(S3O16)9,1.4932000000000003
Na18Ca20Ta4Si3(S11O48)3,1.4934
Zn(BiO2)2,1.4934999999999992
LiV3(OF3)2,1.4935000000000005
Li2NiSnO4,1.4935999999999998
NaV3O8,1.4936
V2NiP2H6O13,1.4936000000000005
Li5Cu(PO4)2,1.4936000000000005
Ba3(GaN2)2,1.4937000000000005
KLaNb2O7,1.4938999999999998
K2Cr2O7,1.4939
Nb3O7F,1.494
NaGa6Sb7(TeCl3)8,1.4941
Sm3FeO6,1.4942
Mg6NbAlO8,1.494299999999999
Li4V3CrO8,1.4942999999999995
Na5NiHO4,1.4942999999999995
MgV4O7F5,1.4943
Zr2N2O,1.4943
Li3Fe8(BO3)8,1.4945000000000002
Na2MnFeF7,1.4946000000000002
Cr(WO4)3,1.4946000000000002
Na4Mg3SiGeS5O24,1.4946999999999997
Li5Fe8(BO3)8,1.4949
Fe3(OF2)2,1.4949
Li4PbO4,1.495
CsBa2Co2F9,1.495
MgFe4O5F3,1.4952
CuReO4,1.4953
K3VO8,1.4953
Ca2FeSbO6,1.4953
Na4Mg3TiSiS5O24,1.4953
NaCaTiP(SO6)2,1.4953999999999998
Li5Fe8(BO3)8,1.4954
HfMg6BO7,1.4954
CeTi2O6,1.4954
CeAsO4F,1.4954999999999998
Na2CoNiF7,1.4955
Fe4O3F5,1.4955000000000005
SrHfS3,1.4955999999999996
MgTl4(MoO4)2,1.4955999999999996
LiMnOF2,1.4956
BaHgAs2O7,1.4956
Li2VPO5,1.4956999999999998
Li6V3P8O29,1.4956999999999998
K2CdSnS4,1.4957
Li3Fe2(SiO4)2,1.4957
BaMnF5,1.4957
K2PdBrCl3,1.4958
Li24Ti11CrO36,1.4958999999999998
CsCu2Br3,1.4959
V(SiO3)2,1.496
Li3Fe8(BO3)8,1.496
La2MgFe2(WO6)2,1.4960000000000004
Bi6PtCl10,1.4961
Fe5(OF4)2,1.4962
Na14Ca5Ti3Si6(SO8)6,1.4962000000000002
Ca2V3O8,1.4962999999999995
MoWO6,1.4963
TiNiO3,1.4963000000000006
Fe3SiP5O19,1.4964
Li9V5(Si5O16)2,1.4964999999999993
ZnH6(Se2N)2,1.4965
Tm2MgCr2O8,1.4966
NaP15,1.4966000000000004
Zn(FeO2)2,1.4967999999999997
ICl,1.4968
MgAlTe(WO4)2,1.4968000000000004
Rb2GeSe3,1.4969
Ag2PS3,1.4970999999999997
MgV4(CoO6)2,1.4971
Ca4Mn3B3CO15,1.4971000000000003
KNa2IrF6,1.4972
Br3N(O2F5)2,1.4972
Na3CoO3,1.4972000000000003
Na2Y4Ga4SiS11O48,1.4977
Mg3H6SeO3,1.4977
Li3V(Si2O5)3,1.4977999999999998
NaAl6Sb7(TeCl3)8,1.4978
RbCaSb,1.4979000000000002
Ca3Mo2O7,1.4979000000000005
K3IO5,1.4979999999999998
AgXeF9,1.4980000000000002
Ba2Mg(MoO4)2,1.4981
CsCoNiF6,1.4981
RbLa(ClO)4,1.4981
Li2CrO2,1.4981
VO2F,1.4981
HoHSe,1.4981000000000004
CsRbMg30O31,1.4981999999999998
MgGeP2,1.4981999999999998
VNi3Sn2(PO4)6,1.4981999999999998
ThV2O6,1.4981999999999998
Li5Fe4(P2O7)4,1.4982
Na14Zn4Si7Ge4S5O48,1.4982000000000002
Fe2PHO3F2,1.4983000000000002
CuPO3,1.4985
LiCo(SiO3)2,1.4986
Rb2NaMn3F12,1.4986
Cs2PtC4(IN2)2,1.4987
CsEr3Se5,1.4987
K3BiTe3,1.4987
C9F5,1.4988
LiCuC2O5,1.4988
Li4MnOF5,1.4989
K3Gd3(PS4)4,1.499
MgScMo3O8,1.4990000000000006
Hg2P2O7,1.4992
V3As2H4O13,1.4995
MgVCuO3,1.4995000000000005
FeTeO3F,1.4996
LuSeO3,1.4996000000000005
Ba2CdTe3,1.4996999999999998
MgZnCu2,1.4998
LiVPO5,1.4998
VF3,1.4998
Hg8Bi3As4Cl13,1.4999
Nb(SBr)2,1.4999999999999998
BaNaVS4,1.5001
MgAg2(CO3)2,1.5001
LiCu(PO3)2,1.5001000000000002
VOF,1.5002000000000002
Ca2FeH6,1.5002999999999995
Nd3Se2NO,1.5003000000000002
LiMg14SiO16,1.5004000000000008
Sr2NbCoO6,1.5007
Sr3InRhO6,1.5007
MgV4O7F5,1.5008
LiVSiO4,1.5009000000000006
MgAs4(PO4)4,1.5010999999999997
K13Na2W7N19,1.5011
Na4Mg(FeO2)4,1.5012
MgZn2Mo3O8,1.5012
BaH8PtC4(NO)4,1.5012
FeP(HO2)2,1.5012
LiTbSe2,1.5013
MgFe3Ni2Sb(PO4)6,1.5014000000000003
Sr2TaFeO6,1.5015
TaAuN2,1.5015999999999998
Li4Ni3Sn(PO4)4,1.5015999999999998
Y4S3N2,1.5015999999999998
Yb2S3,1.5016999999999996
V3(H3O5)2,1.5017
NaGa5O8,1.5017999999999998
CaV2P2O9,1.5018000000000002
Li6VSn3(PO4)6,1.5020000000000002
Na2Nb5Al3Si6(SO8)6,1.5021
La2MgMoO6,1.5021000000000004
KBaCeBiO6,1.5021999999999998
Li4V2SiO8,1.5021999999999998
MgTi2Tl2W2(O5F)2,1.5023
LiP4WO12,1.5023
Sr4Nb2O9,1.5023000000000004
LiVPO5,1.5024
CoH17S2N5ClO4,1.5025
K2FeNi(CN)6,1.5027
Cd2PCl2,1.5027
AgSb3PbS6,1.5029
Li3Sn(BO3)2,1.5029
Lu2MgCr2O8,1.5029
Ba3CrO5,1.5029000000000003
Gd3Y(FeO3)4,1.5032
Li2Ti(TeO4)3,1.5033
GaAg(PSe3)2,1.5033
NaLaGeP2SO12,1.5033
LiMnF4,1.5033
Ga2NiO4,1.5034
Ba6LiNb2Ir(ClO6)2,1.5034
LiVSiO5,1.5034
KNb13O33,1.5036
Ca2CrH3(IO5)2,1.5036
Ba3MgCr2O8,1.5036
ErCrTeO6,1.5039000000000002
Na2ZnGe3P4(SO12)2,1.5039999999999998
CaSn2O5,1.5040999999999998
Nd4Ag2Se7,1.5042
BaNaH3Pd,1.5042000000000002
NaGeN,1.5042999999999995
Re3(SeCl)7,1.5043
BaAlCu3Se4,1.5043000000000002
LiLa2MoO6,1.5043000000000006
V4O5F7,1.5045
RbP15,1.5046000000000004
Ba(AlTe2)2,1.5046999999999997
V2Ni(PO5)2,1.5047
P3RhW2O15,1.5049
Li8MnO6,1.5049
VCo2P2H3NO9,1.5049
MgFe4(OF)4,1.505
Sn2Ge2O7,1.5051000000000003
LiP4WO12,1.5052
TeCF2,1.5052
LiMn3OF5,1.5052
CaLaCrMoO6,1.5053
Li2CuPO4,1.5054000000000003
TbHSe,1.5054999999999996
Li2Cr4O13,1.5055
K3Mo4(P2O11)2,1.5057999999999998
CdGeO3,1.5058
WN2(OF4)2,1.5059999999999998
Sr2ZrMnO6,1.5060000000000002
Mn2NbFeO6,1.5060000000000002
LaHSe3O10,1.5061
MgFe(GeO3)2,1.5062000000000002
TlRe3(Se2Cl)2,1.5062999999999995
Gd3AuO6,1.5063
TeMoWSe2S,1.5063000000000002
La2ZnMoO6,1.5064000000000002
Na6Mg6Ti2SiS11O48,1.5064000000000002
LaSm3(FeO3)4,1.5064000000000002
V2CoO6,1.5064000000000002
Mg7GeN6,1.5064000000000002
La2Zn2O5,1.5065
MgV2O4,1.5065
AlPO4,1.5065999999999995
Li3Fe8(BO3)8,1.5066000000000002
Li3VCr3O8,1.5066000000000002
GaH18I3N7,1.5066000000000002
LiVFeP2(HO5)2,1.5067
Zn(FeO2)2,1.5067000000000004
Ho2Pt2O7,1.5068999999999997
Li2AlCoO4,1.5069
HfMg6CoO8,1.5069000000000008
KCr2FeO8,1.5071
YTl(PSe3)2,1.5071
KMg6SiO8,1.5071000000000003
LiTiVO5,1.5071000000000003
Cs2As8S13,1.5072
YHSe,1.5072
Ba2MnO3,1.5072
Ti3Fe9O16,1.5073999999999996
Nb2Si3Ge2(SO8)3,1.5074
NaMgTaSi(SO6)2,1.5074
V2OF5,1.5074999999999998
AlB3H14N,1.5074999999999998
Rb2U2O7,1.5077
Cs2U2O7,1.5078
WSeS,1.5081000000000002
NaMnFe(PO4)2,1.5082
SnPSe3,1.5082
LiV2O3F,1.5082
Sr6Mg(Te4O11)2,1.5083000000000002
Sn15Os3O14,1.5083000000000002
Na14Zn5Si6Ge3(SO8)6,1.5084
Ti4Fe(PO4)6,1.5086
Na2Mg5Ti3(SO4)12,1.5087000000000002
Na6Ca6Ti2SiS11O48,1.5087000000000002
Mg6NiBiO8,1.508799999999999
NaLaTiSi(SO6)2,1.5088
V2F7,1.5088
Mg2NiH4,1.5088000000000004
Na2O,1.5089
Li3VCr3O8,1.5089000000000006
Na2TiNiO4,1.509
LiVFe(P2O7)2,1.509
Li3TiV3O8,1.509
V2OF5,1.509
Ba2La2Mn(WO6)2,1.5090000000000003
Li2P5WO15,1.5090000000000003
Zr2N2O,1.5091000000000006
MgFe4NiO8,1.5092
MoS2,1.5093
Pr4S3N2,1.5093
Ca3(BiN2)2,1.5093
Li9Mn2Co5O16,1.5093
LiB6S4(Cl3O4)2,1.5094
NbNO,1.5094
BaMg14SnO16,1.5094999999999992
NaMo3P3O13,1.5094999999999996
Mg(FeO2)4,1.5096000000000005
BaMg(FeO2)4,1.5097999999999998
KSn2I5,1.5097999999999998
Na6Sc4Ti4Si5S7O48,1.5098
UPbO4,1.5098000000000005
NbP4(SCl)5,1.5099
Ru2C7S10N10(Cl4O3)2,1.5099
Sr2CoTeO6,1.5099999999999998
Li4VCr3O8,1.5099999999999998
Li24Mn11CrO36,1.5100000000000002
Sr2MnNbO6,1.5101000000000004
Mo2O5,1.5101999999999998
Nb(SCl)2,1.5101999999999998
NO2,1.5102
Ba3MnSb2O9,1.5103
In4Bi2S9,1.5103
LiGa(GeSe3)2,1.5103999999999995
VOF2,1.5104
MnGaFeO4,1.5104000000000002
Mg14FeSnO16,1.5104000000000006
Y3CuSiSe7,1.5105
Li24Mn11CrO36,1.5105
LiSmSe2,1.5106
Na14Mg5Ti3Si6(SO8)6,1.5106000000000002
BaAlSi5N7O2,1.5107
MgFe4(OF)4,1.5107
LiCrPO4,1.5107
K4MgMo2(SO3)2,1.5108
Fe2CoAs2(H5O7)2,1.5109
Na2Pd(SeO4)2,1.5109
CeHfO4,1.5109999999999997
BaAgTeF,1.5109999999999997
CeTlF5,1.511
MgAlCu(WO4)2,1.511
BaLaMnSbO6,1.5111
UH10Cl2O15,1.5111
Rb3NpH4O7,1.5111
Ba16Re6O37,1.5112
K3GaTe3,1.5112
UTl2O4,1.5113
MgNi(TeO3)4,1.5113999999999992
MgV4FeCoO12,1.5114
V2OF5,1.5114
C(NO)2,1.5115000000000005
Mg(InS2)2,1.5118000000000005
LiVSiO4,1.5118000000000005
VOF2,1.5121
Si2Hg6O7,1.5122
MgFe6(OF)6,1.5124000000000002
SrCuSF,1.5126
Mg2Ta10Si9(SO8)9,1.5126000000000002
LiVPO5,1.5127
TaO2F,1.5127000000000002
MgTl4V4(TeO5)4,1.5127000000000002
CsV2I3O13,1.5128
S5N5Cl,1.5128
Ba3PtF12,1.5128
Na8Ca3TiSi3(SO8)3,1.5128
La5Ti2AgS5O7,1.5128000000000004
VOF2,1.5129
S4(BrN)3,1.5129
TlHO,1.5129
MgCr2(Fe2O5)2,1.513
Li2VNiO4,1.513
Li3Fe4SbO8,1.513
BaSO2,1.5130000000000003
Li2AlCoO4,1.5132
V2OF5,1.5132
CsTi(PS4)2,1.5132
InSeI,1.5132
Cs2RbTlBr6,1.5133
B,1.5133
YV(TeO4)2,1.5133
NaMg30MnO32,1.5134
Pr2P3H5WO9,1.5134
TeMo2Se3,1.5134
V2OF5,1.5134
BiTeCl,1.5135
Cu3P4(SI)3,1.5135999999999998
SmVO3,1.5136000000000005
Li4V3FeO8,1.5136999999999996
Li2VBPO7,1.5137
Li2MnOF3,1.5139
MgV2In2O8,1.5140000000000002
Li9Co3P8O29,1.5143
Fe6P4H23O21,1.5143
Li2MnV3O8,1.5143
Li6V3P8O29,1.5143000000000002
NaSr6H17Pd2O17,1.5143999999999995
Na6Nb3Al5Si6(SO8)6,1.5143999999999995
Fe3OF5,1.5144
KNa2CuO2,1.5144
Na2NbAl3Si2(SO6)4,1.5145
Li3Mn5O2F9,1.5145
Na6Ti8Si7S5O48,1.5145
CrPO5,1.5145999999999995
KMgNbO3,1.5147
Sm4Ag2Se7,1.5147
CsNdCdTe3,1.5147000000000004
CoP3H16N4O11,1.515
YWN3,1.5150999999999994
Li16V3Ga13O32,1.5151
Li5Fe8(BO3)8,1.5151
TlSb3S5,1.5151
AlCr(WO4)2,1.5151000000000003
K2AgIrF6,1.5151999999999997
Li3FeO3,1.5152
BaNa2O2,1.5152
LiFe4(BO3)4,1.5153
LiRhO2,1.5153
Li2Mo(PO4)2,1.5154
MgSn3P2(SO6)4,1.5154
LiAlVO4,1.5154
Mg(FeO2)2,1.5154000000000003
LiLa4NiO8,1.5154999999999994
MgFe6(OF)6,1.5155999999999998
Li9Mn2Co5O16,1.5156999999999998
BaNiO3,1.5157000000000005
Ba4Na(SbO4)3,1.5158000000000005
Ba3Fe2WO9,1.5158999999999998
LiTiV3O10,1.5159
Mo3P2PbO14,1.5159999999999996
La2MnFeSe2O3,1.516
Cs3Y7Se12,1.5161
LiTiMnO4,1.5162
Mg6SiNiO8,1.516299999999999
Ba2LiV2(Si2O7)2,1.5163000000000002
Rb4Cl2O,1.5163000000000002
TiVO4,1.5164
Li3Fe4(BO3)4,1.5164
Li3Ni5OF11,1.5166
Li6V3P6WO24,1.5166999999999995
LiCr4(PO4)3,1.5167000000000002
Ca3TeN4,1.5167000000000002
FeH36C12S6(BrO2)3,1.5168
LiMnO4,1.5169
Sr8SnPb3O16,1.5169000000000006
B2(CN2)3,1.517
MgFe6(OF)6,1.517
U2Nb6O21,1.517
MgTl2(SbO3)2,1.5170000000000003
MgV2Pb3O8,1.5170999999999997
Li14Mn2S9,1.5171
SrCuTeF,1.5171
LiCoSiO4,1.5174
CaReN3,1.5174
Zr2N2O,1.5175
NaMo2P2O9,1.5175999999999998
FeBO3,1.5175999999999998
Li2V3CoO8,1.5176000000000005
LiNbTe2WO12,1.5177
NdNb3O9,1.5177000000000005
H2,1.5177999999999998
La2Mn3Sb3O14,1.5179
Fe2Te4H3ClO12,1.5179000000000005
Na6Ti2Zn6SiS11O48,1.5179999999999998
VP2O7,1.518
V2H3O5,1.5180999999999998
CrCl3,1.5182
Li2TlPCO7,1.5182000000000002
LiFe2(BO3)2,1.5182000000000002
Fe6P4H17O27,1.5183000000000002
Sr2VN3,1.5183999999999995
CrSb(PO4)2,1.5183999999999995
Na14Mg4Ti4Si7S5O48,1.5184000000000002
K2LiVS4,1.5185
CrXeF10,1.5185