formula,band_gap (MP)
Cs3Sm(PS4)2,2.1903000000000006
LiCrB2O5,2.1903000000000006
Co6Ge2(CO)19,2.1904
La4GdSc15(BO3)20,2.1905
Rb6U2Mo4O21,2.1909
NaLi5Ti3Cr3(PO4)9,2.191
Li3CrPCO7,2.191
GaBi25O39,2.1910000000000007
ZnCrO4,2.1911
Ca(HoS2)2,2.1913
AlS5N5Cl4,2.1913
Sr5W3O14,2.1914
Na9Ca2Nb4Si6(PO12)3,2.1914
Mn2InC10IO10,2.1914
Sc11Nb3O24,2.1915
Cs3HoO3,2.1915
BaGe2S5,2.1915000000000004
TiP3WO12,2.1916
Na7Ti3ZnSi3(PO8)3,2.1916
Ba3Sn2S7,2.1916999999999995
CsSiSbO5,2.1916999999999995
La3AlCdS7,2.1917
Sr3ErRhO6,2.192
Ga2WO6,2.192
MoP4C5S3O5,2.1921
Ca3AsI3,2.1921
Bi6W4O21,2.1923
Rb3HoO3,2.1923
Na9Mg5Ta7Si9(SO8)9,2.1924
Tl4SnI6,2.1924999999999994
Ba3(LaI6)2,2.1925
Sn4H26(Br4O5)3,2.1925
Li5ReO6,2.1927
Sn4H26(Br4O5)3,2.1928
BaSrTa2O7,2.1929
Li2Cr(CO3)2,2.1929
B6H7O6,2.1929
CaHN,2.193
Na6La2Nb2Si5SO24,2.193
RbHfC(OF)4,2.193
K3TlCl6,2.1932
FePO4,2.1932
TlH4NCl4,2.1932
Ba3Ta4Ti4O21,2.1932
NaVPO5,2.1933
CrOF3,2.1933
ZnAgPS4,2.1934
HgAs3H12C4S6N,2.1934
LiCa4(BN2)3,2.1934
Ba3LiTi5Nb3O21,2.1934000000000005
Sr3Al3N5,2.1934000000000005
Na2Al2Si3(HO3)4,2.1935
Li2CoSn(PO4)2,2.1936000000000004
K4Na2TeO6,2.1937
Zr5Si6H36C12(Br10O3)2,2.1937
MnH4(C2O3)2,2.1937
K2SrNi(NO2)6,2.1937
BaSrCaSeO6,2.1937
Li2CoSn(PO4)2,2.1937999999999995
Fe5Sb(PO4)6,2.1937999999999995
Li3Fe4(OF3)3,2.1938
AlSeBr7,2.1939
Fe2(CO)9,2.194
Ca5Al12Si12(AgO24)2,2.194
Fe6Ge2(CO)23,2.1941
BaSrCeHfO6,2.1941000000000006
Li3Cr(CO3)3,2.1942
P,2.1942
Sr4Al6CrO16,2.1943
Rb4(BSe)9,2.1943
Gd2As4O11,2.1943
K2UMo(IO6)2,2.1943
Tm2Mg2O5,2.1944
AsXeO2F7,2.1944000000000004
BaSrNbSbO6,2.1945
Na5Mg2Sn2P5SO24,2.1945
Na2Ti9O19,2.1946000000000003
KMgNiIO6,2.1946000000000003
Ca3SnS5,2.1946000000000003
LiVF4,2.1946000000000003
Li3MnOF3,2.1946000000000003
Mg(MoO2)2,2.1947
RbPbCl3,2.1948
Ba2CaUO6,2.1948
CaP4(Br3O)4,2.1948
Li2CoSiO4,2.1948
Na9Mg2Nb4Si6(PO12)3,2.1949
Ba3(ClO)2,2.1949
BaCaCeHfO6,2.195
RuC3SeO3,2.195
Na3YSiSn(PO6)2,2.1950000000000003
Li5Ti6FeO16,2.1950000000000003
SeCl,2.1951
Li3FeBAsO7,2.1952
CrFe(PO4)2,2.1953000000000005
K2NaScI6,2.1954
Ca3(AlN2)2,2.1954
SrCr2O7,2.1955
Na10Nb6Al2Si11SO48,2.1956
RbAuC2,2.1956
Mn4Zn3H10(CO8)2,2.1956
NaY3SiS7,2.1956999999999995
K10Th3(P5S18)2,2.1956999999999995
LiVP3HO10,2.1957
Li4V3P4O15,2.1958999999999995
Sr4PtO6,2.1959
TaP4S6Cl5,2.1962
LiH2BrO5,2.1962
Y9Al(GeS7)3,2.1963
TlHgF3,2.1963
RbPbCl3,2.1963
Sr2Bi2O5,2.1964
Cr(PO3)5,2.1964
Rb2Mn2(MoO4)3,2.1965
SiSn2(SO6)2,2.1966
TaAl3SiS5O24,2.1968999999999994
Tl4Mo(CN)8,2.1969
AlTlO2,2.197
Ca9Si6(WO7)4,2.197
Na6Ga8Si3(S3O16)3,2.197
Ta3(OF)5,2.197
Cs3SbH2S4O,2.197
KBiP2S7,2.1971000000000003
K3Ta2Ag3S8,2.1972
LiCr(PO3)4,2.1972
Ba(ReN2)2,2.1972000000000005
NaV(OF)2,2.1974
Na3YTi3Si3(SO8)3,2.1974
Cs2PrCuBr6,2.1974
NaCaGdSeO6,2.1974
H12PtN6(ClO3)2,2.1975
Ti3ZnP2(SO6)4,2.1975
VAsO5,2.1975
MgV2ZnO6,2.1976
Li2VBO4,2.1977
AlH3,2.1977
Li2VF6,2.1977
NaGa2Sn2P3(SO8)3,2.1977
Ba2U(PO5)2,2.1977
Tb2Be2O5,2.1978
SrHgO2,2.1978
NaFe3P2(H4O7)2,2.1978
LiCoPO4,2.1978
K2ZnCr4(HO4)4,2.1978
Li8VCo3(PO4)6,2.1979
LiFeB2O5,2.1979999999999995
LiCoBO3,2.198
CdIBr,2.198
Mn2SnC9BrO9,2.198
CuW3Br7,2.1981
MoPb3Cl2O5,2.1981999999999995
Na10La2Nb6Si11SO48,2.1982
H6Pt(NO)4,2.1982
ScInO3,2.1982000000000004
Li3Fe(OF)2,2.1983
KLaSmSbO6,2.1983
Li4V2Si4O13,2.1985
CsKMg14O15,2.1985
CSeN,2.1986
BaCaCeZrO6,2.1986
Na2MnCrF7,2.1986
TiSb(PO4)3,2.1986
CaLaFeSnO6,2.1986000000000008
LiCrPO4,2.1987
RbGeI3,2.1987
CoH8(BrO2)2,2.1987
FeH10N2Cl5O,2.1988
Hg2Mo2O7,2.1989
Ca3UO6,2.1989
BP4(SI)3,2.1989
Zn3Co2(GeO4)3,2.1989
Li3AgF4,2.1989
Na4CO4,2.1989
NaUN3O11,2.1991
Na7Sc3NbSi3(PO8)3,2.1992000000000003
FeMoClO4,2.1992000000000003
Cs3GaSe3,2.1993
KCa(H2N)3,2.1993
Ca2Nb2SnO8,2.1995
Sr4MgIn2(SbO6)2,2.1995
NaLuTiO4,2.1995000000000005
Li2VCr(P2O7)2,2.1997
TlCl3,2.1998
MnV2P2(H4O7)2,2.1998999999999995
Na3V2P2O10F,2.1999000000000004
Na3Cr2(AsO4)3,2.2
LiVP2O7,2.2
Os2Pt(CO)9,2.2001
Pb13(Br3O5)2,2.2003
Ti(SeO3)2,2.2003
W(ClO)2,2.2004
Ba3(BrO)2,2.2005000000000003
Ba3Ta6Fe2O21,2.2006
P4C2Se3N2,2.2007000000000003
Y4Si2Ni13(SbO14)2,2.2008
LiVFeO4,2.2008
Li3CrClO4,2.2008
US2O9,2.2009
KFeF4,2.2009000000000003
CsAgCl2,2.201
MgV2(CoO4)2,2.2011000000000003
Ru3C9Se2O9,2.2011000000000003
CrPO4,2.2012000000000005
Cs2ScInBr6,2.2014
Li2V(CO3)2,2.2015
Na6Ta4Al4Si7S5O48,2.2015
RbBS3,2.2016
LiCoAsO4,2.2017
TaCrO4,2.2018
Na5GaO4,2.2018
BiTeO4,2.2018999999999997
K3Na2LiTeO6,2.202
Hg2Pb(SBr)2,2.202
LiV(PO3)4,2.2021
CrPbO4,2.2021
V2Co2PbO8,2.2023
MgC2S2(OF3)2,2.2023
RbCa2Ta3O10,2.2025
MnCr2O4,2.2026
Na3MgSbS4,2.2026
RbMgF3,2.2027
LiCoPO4,2.2027
HfTi(PbO3)2,2.2028
V2Te2O9,2.2033
KNdHfTiO6,2.2033
ScH16I3O8,2.2035
BaSrCe2O6,2.2035
MgAg2(PS3)2,2.2038
Na8CaSi4Sn3(PO12)2,2.2038
Rb2CaNb2(TeO6)2,2.2039
Li2Ni3O3F2,2.204
Li2V(Si2O5)3,2.204
Ba3Sr(HgO2)4,2.2041
LiCoAsO4,2.2041000000000004
Ba(InS2)2,2.2042
Na3SbH18S4O9,2.2043
Er2TiO5,2.2043
Nb9AsO25,2.2043000000000004
NaNdS2,2.2045000000000003
LiNdTiO4,2.2048
MgVCrP2(O4F)2,2.2048
Ba2Sr3Nb10O30,2.2048
UH4(NO5)2,2.2049
La(NO2)3,2.2049000000000003
Na4Mg2Ga2SiS5O24,2.2052
RuO4,2.2052
Nb4Pb3O13,2.2052000000000005
Tl2PS3,2.2053000000000003
CsTbS2,2.2054
Li3MnPO5,2.2055
HfNCl,2.2055
Ho2MgAg2(WO4)4,2.2055
Li2V2O5F2,2.2056
K2RbRhF6,2.2056
La2H28PtN4(Cl3O13)2,2.2056
Cs2Tm2Mg(WO4)4,2.2057
CsBa3Ga5(Se5Cl)2,2.2057
Na9Ta7Zn5Si9(SO8)9,2.2058
V2NiH6(NO3)2,2.206
Cs2HfI6,2.2062
S4N5Cl,2.2062
SrLi2Ta2O7,2.2063
NaLaNb(PO4)3,2.2063
YbOF,2.2063
Na6Ca5NbP3(SO6)6,2.2063
KNbCl6,2.2064
RbMoAsO6,2.2064
TlBiP2S7,2.2066
Bi(W2Cl5)3,2.2069
CaSiN2,2.2069
KSr2Nb5O15,2.2069
Li4Y3VO8,2.2070000000000003
Li2Fe4OF8,2.2071
KYTa2O7,2.2072000000000003
Na8NbGa3Si5SO24,2.2073
CoP3H16N4O11,2.2074
Ti(SO4)2,2.2075
Si2H2O3,2.2075000000000005
Na6MgTi3Si2(PO6)4,2.2076
K2FeH2Cl5O,2.2076
CaV3O7,2.2076
UH12C4SN2O9,2.2077
Li2V3O8,2.2077
P4S3I2,2.2079
S,2.2079
Rb2NaScI6,2.2079
NbO2F,2.2079
Ba4Cu2IBrO4,2.2079000000000004
Na3YNbSi2PO12,2.2079000000000004
BrNO3,2.208
CaNdFeSnO6,2.208
KLaSiSe4,2.2080999999999995
Te(HO)6,2.2082
ReC5IO5,2.2083
Ba3Dy2WO9,2.2084
LiVF6,2.2085
TlI,2.2086
C2N2O,2.2087
VH7N2O5,2.2087
SrPr3CrNiO8,2.2087
MgCr2(PO4)2,2.2087000000000003
Sr2CaUO6,2.2089
Na5Zn3SnP3(SO8)3,2.2089
Li2CrSi7O16,2.2089
Ba4W(N2Cl)2,2.2089000000000003
La2SiSeO4,2.2089000000000008
Na3CoBSO7,2.209
Na14In4Si9Sn4(SO16)3,2.209
NbTlCl6,2.2092
BaLi2NiO3,2.2093
RbUH2SeO7F,2.2095
La2Ti2ZnO8,2.2095
H5IO6,2.2095
PrSbO4,2.2095
MgVAgO4,2.2098000000000004
Li3MnFeCo(PO4)3,2.2099
Nd3Ti12Bi13O48,2.2099
Nd2HgO4,2.2099
Sr3YI9,2.2099
Na2MgZr3Si2(SO6)4,2.2099
Ba5La3I19,2.2099
Na7Zn3GeP5SO24,2.2101
BaMg30CoO32,2.2101
CuAs2Pb6Cl7O6,2.2101
Na4(BSe)9,2.2101
Tl3Ga9S13O2,2.2101
HgC2(SeN)2,2.2102
Zn2SiO5,2.2104
CsAsH6(CSe)2,2.2104
K15Re7N19,2.2104
La3CBr5,2.2104
H4S4N6O,2.2105
LiVF4,2.2105
LiV(OF)2,2.2105
CoH8(CO4)2,2.2106
Rb2TbAuCl6,2.2107
BaCeO3,2.2108000000000003
LiVF4,2.2109
BrF3,2.211
Ba2FeCoF9,2.2110000000000003
BaCeO3,2.2112
K2Ge2PbS6,2.2113
Dy2MgSe4,2.2113
Tb2MgSe4,2.2113
K4Ti3Mn(PO4)6,2.2113000000000005
WSNCl5,2.2114000000000003
CsAsO3,2.2116
TlF,2.2117
NaCaMgAl(SiO3)4,2.2117
Li3P7W5O29,2.2117
Li(CO)2,2.2118
BaSr3Zr2Ti2O12,2.212
LiCr(PO3)4,2.2123
K5CeCo2(NO2)12,2.2123
MgPb2(WO4)2,2.2124
V3OF11,2.2125
LiVP2O7,2.2125
Mg30BSbO32,2.2125999999999992
K2Hg2SCl4O3,2.2126
Rb3HoO3,2.2127
B11H11C4SI10NF,2.213
CaAsWO5,2.213
Li2VO3F,2.213
NaNb3AlSiP5O24,2.2131
Rb2TlIrF6,2.2131
Na4I2O,2.2131000000000003
La2TiMnO6,2.2132
UH6C3SeN2O7,2.2132
Na7MgTi3Si3(PO8)3,2.2132000000000005
VOF2,2.2133000000000003
Na2LiCu(PO3)4,2.2133000000000003
Sr3UO6,2.2134
Na8CaTi3Si4(PO12)2,2.2134
Rb7SmFe6(P4O17)2,2.2134
LiCo3P3O11,2.2134000000000005
TiSiSn(SO6)2,2.2135
LaCrHO5,2.2136
CaNiF5,2.2137
Tl2SO3,2.2137
KBa3Ga5(Se5Cl)2,2.2139
UAs2H12(C3O2)4,2.2142
Li3Ni2O2F3,2.2142
Hg2TeO3,2.2142
Li2VO3F,2.2143
LiMnF4,2.2143
Na7Ca3TiP5SO24,2.2144000000000004
CsZnFeF6,2.2145
CsRb2RhF6,2.2145
Fe2(SO4)3,2.2146
BaLiH3,2.2146
Cs2InSbF6,2.2147
NaU2H5C4O15,2.2147
Li2V(Si2O5)3,2.2147
SmPS4,2.2148
Cs2NdAuCl6,2.2148
CsCrCoF6,2.2148000000000003
Na3Ti3In(PO4)6,2.2148000000000003
Mn4Si3AsHO13,2.2148000000000003
Hg2I3Br,2.2149
Sr2MgMoO6,2.2149
Cs2GeCl6,2.215
Cs4SiSe4,2.2151
Co(HO)2,2.2151
BaNb2Bi2O9,2.2153
La2MgWO6,2.215399999999999
LiV(PO3)4,2.2154
KLaCeSnO6,2.2154000000000007
Hg2W2O7,2.2155
Li2Co(CO3)2,2.2155
ErSeF,2.2157
Na10Mg6Zr2Si3(S3O16)3,2.2158
Na14Y4Ti4Si9(SO16)3,2.2158
Sr3PbS4,2.2159
Mg2Nb2SnO8,2.2160999999999995
Ba2ZrTiO6,2.2161
Mg14VFeO16,2.2162
HoCrO3,2.2162
Zn2Ag2(MoO4)3,2.2162
Ba8B5N10F,2.2163
YMoO3,2.2163000000000004
CsVCoF6,2.2164
HgC2(SN)2,2.2164
SbPO5,2.2165
LiVO2F,2.2165
KCuAg2(CN)4,2.2166
Ba2SmMgMoO6,2.216600000000001
H12PdC4(NO5)2,2.2167
Li2CrO4,2.2168
H7C2SN5,2.2168
V3OF11,2.2169000000000003
Li2V(CO3)2,2.2169000000000003
MgSi4WO10,2.217
Sn2PCO6,2.217
LiVOF3,2.217
CsRbMg14O15,2.2172
LiCoBO3,2.2173
LiV(OF)2,2.2173
HoI3,2.2173
LiV(PO3)4,2.2173000000000003
SnPS3,2.2176
Na2Zr4In4Si3(S3O16)3,2.2177999999999995
LuAgO2,2.2177999999999995
NaY2Nb2P5SO24,2.2178
MoH(ClO)2,2.2179
YTaSi(SO6)2,2.2181
Li5Fe3Cu2(PO4)6,2.2183
UH12C4N4O11,2.2184
ZrSiGe(SO6)2,2.2184
LiVF5,2.2185
Li8Co(O2F)2,2.2185
CsNdS2,2.2185
DyCrO3,2.2185000000000006
In2Hg6(PCl3)3,2.2186
NaAlCr2(HO4)2,2.2186
H2CO,2.2187
K4Mo3H4O17,2.2189
K2Mn3H10S4O21,2.2189
LiFe2(BO3)2,2.219
Na6Y5Ta3Si6(SO8)6,2.2190000000000003
NaNd3Ti2(SbO7)2,2.2190000000000003
TaSbO4,2.2191
BaNd2PdO5,2.2191
BaBiNO5,2.2193
Li8Co(O2F)2,2.2193
YIO,2.2193
KLaCeHfO6,2.2193
Li3MnFeCo(PO4)3,2.2194
ReTe5O6F25,2.2194
CoHgH18Br4N6Cl,2.2194
SeS4N3Cl5,2.2195
Cs2NbAgS4,2.2195
ZnSi7N10,2.2195
LiV3P3(HO6)2,2.2196
Na3Ti3AlSi3(SO8)3,2.2197
Pr16Si16N27Cl3O14,2.2198
LiFeSiO4,2.2198
Ba2CeHfO6,2.2198
LuPtF7,2.2198
LiNi7O7F,2.2198
Sn4P2O9,2.2198
BaFeP(O2F)2,2.2199
Sr2LiCdWO6,2.22
Sr22Nb10O47,2.22
LiNi4(PO4)3,2.2202999999999995
GaSeBr7,2.2203
Mg6MnFeO8,2.2204000000000006
C11F7,2.2206
Rb2PrAuCl6,2.2207
BaCeO3,2.2207000000000003
CdInBr3,2.2208
NaBi3(BrO2)2,2.2208
AgPHNO2,2.2209000000000003
FeH8S2NO10,2.221
LiVOF3,2.221
LiFe3OF5,2.2211
SrHfTiSnO6,2.2211
RbMoN2,2.2211
NaGe4P5SO24,2.2212
MgCo2(PO4)2,2.2213000000000003
KRbS,2.2214
CsBr3,2.2214
Gd3AsO7,2.2214
K8Al2O7,2.2214
Cs2U(SiO4)2,2.2215000000000003
TeMoWSe2S,2.2216
Te2MoW3(Se2S)2,2.2216000000000005
Na7Mg2SiSn2P5O24,2.2218
LiFeF3,2.2218
Na14La3Nb5(SiO4)12,2.2218
SbH36S4N11,2.2221
As14H6O31,2.2221
UH6C2O9,2.2221
Na8Sc3NbSi5SO24,2.2222
Na2Nb18Tl7(PO8)9,2.2223
Ti(SO4)2,2.2226
SiC,2.2226000000000017
KCr3H6(SO7)2,2.2228
Na4MgSiSn(PO6)2,2.2228
ScTa3Si3(SO8)3,2.2228000000000003
SnHg2(SBr)2,2.2229
LiVBO3,2.2229000000000005
BaTi2O5,2.2230000000000003
K2U(MoO5)2,2.2231
La2Ti2CoO8,2.2232
Nd4FeS6O,2.2232000000000003
H8CIN5O3,2.2233
MgSn(SO4)3,2.2233
CoW2O7,2.2233
HoIO,2.2234
Y2Cr3(SiO4)3,2.2234
Na18Ca4Ta20Si27(SO16)9,2.2234000000000003
NaCo2H3(SeO5)2,2.2235
V3CdO7,2.2235
NaCaFe3(PO4)4,2.2236
SnH14C4(Br2N)2,2.2236
Na3Ca18Fe(PO4)14,2.2236
Li2VO3F,2.2236
FeTe6O13,2.2236
CsHoS2,2.2237
HgH12C2(I2N3)2,2.2238
CsTmS2,2.224
TeMoWSe2S,2.224
LiHfMg14O15,2.224000000000001
NaMgTi3P3(SO8)3,2.2241
Na14Al4O13,2.2241
LiCrCSO7,2.2241
Na3Fe2P2O8F3,2.2243
Sr2CeO4,2.2243000000000004
CsDyS2,2.2244
SrCaP2WO8,2.2244
Mg30AlBO32,2.2245
Na8ZnSi4Sn3(PO12)2,2.2245000000000004
YbBeNF6,2.2246
Na14Ta4Zn4Si9(SO16)3,2.224600000000001
TeS7Br2,2.2247
Na2MnPCO7,2.2248
CaBiCO4F,2.2248
Sm2HgO4,2.2249
LiFe(WO4)2,2.2249
CaTeO4,2.225
Li3Co13O5F19,2.2250000000000005
BiBrO,2.2251
K2Fe2H8C4Cl2O13,2.2251000000000003
Rb7DyFe6(P4O17)2,2.2251000000000003
Rb2SnO2,2.2252
Ca4SnS6,2.2252
V6H2Pb4Se3O26,2.2252
TiH16C4(NCl3)2,2.2255000000000003
Ba8Ca5Mn3Fe8F56,2.2256
ScBr3,2.2256
NaMg14BiO16,2.225600000000001
KAgCO3,2.2257
MgTi(SO4)3,2.2257
Na6Ca3TiP4(SO12)2,2.2259
SrGd2BeO5,2.2259
Ba3MoO6,2.2259
Na5Nb2In2Si3(PO8)3,2.2259
Tl3PS4,2.226
Na2CeF6,2.226
V2Bi4O11,2.2260000000000004
MgNb2(PbO3)3,2.2261
Mg2NCl,2.2261
Mo2H33C13S2N4Cl3O5,2.2261
Na2Y2Sc2SiS5O24,2.2262
Na6Mg3TiP4(SO12)2,2.2262000000000004
Cs2YAuCl6,2.2263
Cd4BiB3O10,2.2263
V6H2Pb4Se3O26,2.2265
MgSiO3,2.2265000000000006
RbBa3Ga5(Se5Cl)2,2.2266
VP3(Pb2O7)2,2.2266
Sr3UO6,2.2266000000000004
Ba2MnWO6,2.2267
SbTe8Cl6O6F31,2.2268
H2Ru3C8SO8,2.2268
MoAs2O7,2.2268
Li5V4O12F,2.2269
Na6Sc5Nb3(PO4)12,2.2270000000000003
Ca3BCBr2N,2.2271
LiCrP2O7,2.2271
KBi(PS3)2,2.2272000000000003
CaZrNbFeO7,2.2273
Na2Mg4Zr4SiS11O48,2.2274
KNbCl6,2.2276
FePH4(NO2)2,2.2277
ReH12C2S2N4Cl5O3,2.2277
ReC5BrO5,2.2277
LiFe(PO3)4,2.2278
GeXeF10,2.2278999999999995
K3NaH4,2.2279
FeBi25O39,2.2279
LiCoPO4,2.228
CsFe(SeO4)2,2.2281
Na2CoCSO7,2.2283
Na6CaTi7(PO4)12,2.2284
NaLiMg14O15,2.2284
CsPrS2,2.2284
NaMgGe3P3(SO8)3,2.2284
Cs2NdN5O17,2.2285
K4Co(MoO4)3,2.2285
CaMg6VO8,2.2285999999999992
Rb2TiV3(PO6)3,2.2286
Na21Nb2Zn10P15(SO24)3,2.2286
FePt(CN)6,2.2287
LiCrPO4,2.2288
Sr3MoN4,2.2289
K3AlH6,2.2289000000000003
LiNbP4O13,2.229
NaCaYSeO6,2.229
YMn(WO4)2,2.2291
Cs2TiCl6,2.2291
K2AgAsF6,2.2292
BaMg14CoO16,2.2292000000000005
LiCoBO3,2.2292999999999994
K2PrCuBr6,2.2293000000000003
Ba3Ta2CoO9,2.2294
Sn2P2O9,2.2294
Cs2NaScI6,2.2294
KRbMg30O31,2.2295
Li2Fe3(SiO4)2,2.2296
Na4Mg(FeO3)2,2.2296
KTbGeS4,2.2297
Cs3Y2(H2N)9,2.2297
Ti3Bi6WO18,2.2298
LiCr3P4O15,2.2298
Se2NO6,2.2299
KNaMo(OF2)2,2.2299
KNa2RhF6,2.23
Cs2SmAuCl6,2.23
MoPb5O8,2.2301
H4CSIN2,2.2301
CsICl2,2.2301
KCaNi2H3(SeO5)2,2.2301
SrErAl3SiN4O3,2.2302
V2SiO7,2.2303
Na2La4Sc4SiS11O48,2.2303
CoH16C4(NO)7,2.2303
Ba4Ti11O26,2.2304000000000004
Na2ScNbSi(PO6)2,2.2304000000000004
BaCaLaBiO6,2.2304000000000004
CaTa2Bi2O9,2.2305
Gd3InO6,2.2306
Rb2PdF6,2.2306
CaTi2PbO6,2.2307
CeNd4Zr3O14,2.2307
LiFe2OF3,2.2308000000000003
Ti2PCl13,2.2308000000000003
Mo6PbBr14,2.2309
Ho2MgSe4,2.2309
Li6Cr3Cu(PO4)6,2.231
V4SnO12,2.2311
TaVO5,2.2311
NaSmS2,2.2312
Na3Au(SO2)4,2.2312000000000003
Li2Co3(SiO4)2,2.2312000000000003
K2NdCuBr6,2.2312000000000003
LiVF3,2.2313
Ba3Ca3(MoN4)2,2.2313
K2RbPdF5,2.2313
Li3Mn5OF11,2.2314
CaZr4O9,2.2314000000000003
CrSb(PO4)2,2.2315000000000005
Na3NbInSi2PO12,2.2315000000000005
V6O5F19,2.2316
SrCa3(BrN)2,2.2318
K2FeF5,2.2319
Sr8MgZn4(WO6)4,2.2319000000000004
Rb2InSbF6,2.232
H4CSIN2,2.232
CoHRu(CO)6,2.2321
Na5Ti2In2SiP5O24,2.2321
LaLuS3,2.2322
BaSrCeZrO6,2.2322
Na6Nb3In5(PO4)12,2.2323000000000004
Te2Mo3WSe6,2.2323999999999997
SnH10Br4O5,2.2325
RbB6H8O7,2.2325
FePbC5N6O,2.2325
NaNbO3,2.2326
NaH12AuC4(SO3)4,2.2327
V2Co3TePb3O14,2.2327000000000004
HgSb2Xe5F22,2.2327000000000004
YFe(WO4)2,2.2331000000000003
CsMo2H2C7S7(OF)21,2.2331000000000003
Ni4P2O9,2.2332
LiCrSiO4,2.2333
MgTe2O5,2.2333
Pb3(IO)2,2.2335
TlBiF4,2.2336
Cs(SO2)2,2.2336
LiMnF4,2.2336
Sr2NiMoO6,2.2338
Na12Mg4Nb2Si3(PO6)6,2.2339
Ca(SbO2)2,2.2341
Ba2Mg(BiO3)2,2.2341
LiVPO4,2.1204
BaSrNbBiO6,2.1204
Li2Ti3CoO8,2.1204
Cs4Ga2Se5,2.1204
Cd(GaS2)2,2.1205
Al10Ge2O19,2.1205
RbLi2V2(BO3)3,2.1206
UMo2H2O9,2.1206
Os5C17O16,2.1206
Na10La6Nb2Si7S5O48,2.1206
K11Li4Ta15O45,2.1207000000000003
Fe3Ni2P6WO24,2.1213
Rb2SnO3,2.1213
Rb3HoO3,2.1213
LiSbWO6,2.1215
Er6MoO12,2.1216
CeTh3O8,2.1217
Mg6MnBO8,2.1218999999999992
Na4P2H4CO9,2.1219
Li7Ti7Nb5O30,2.1219
MnP2PbO7,2.122
Ca2YBiO6,2.1221
KUHSO7,2.1222
Ho2PbS4,2.1222
Na42Ta4Zn20Si15(S7O48)3,2.1222000000000003
Li4V2Si(PO6)2,2.1223999999999994
LiNbN2,2.1224
KSnPS4,2.1224000000000003
ZnCr6Si2Pb10(O16F)2,2.1226
Na3GaSi2GeSO12,2.1227
GaFeO3,2.1227000000000005
Mg6FeBO8,2.1228000000000007
Na4Co7(PO4)6,2.1229
Sr3LiBiO6,2.1229
MgFe3(OF)3,2.1229000000000005
RuC3Br2O3,2.123
Li2Sn5(PO4)4,2.1230999999999995
SrMg30MnO32,2.1231
K2Cr3(ClF3)2,2.1231
K2TlInBr6,2.1232
BaNb2V2O11,2.1233
Na15Nb4Zn8P15(SO24)3,2.1233000000000004
YMg6CdO8,2.1234
LaMgTaCrO6,2.1235
Na3YTiSi(PO6)2,2.1235
BaCaCoF7,2.1235
Te5As2Br4O5F26,2.1236
CsSnPS4,2.1236
BaSrLaBiO6,2.1236
V2Cd5(P2O7)4,2.1237000000000004
Na42Ca20Ta4Si15(S7O48)3,2.1238
Al2Si3(SnO4)3,2.123899999999999
Li3YN2,2.1238999999999995
InAsH2O5,2.1239
Ba2CoGe2O7,2.124000000000001
OF2,2.1241
Na4La3NbSi3(SO8)3,2.1242
LiVSiO4,2.1243000000000003
Th(NF2)4,2.1245000000000003
Sm2MgS4,2.1245000000000003
Ca2YCrO5,2.1246
Re2H6PbC(NO5)2,2.1246
LiAlS3(Cl2O3)2,2.1247
InAg(WO4)2,2.1247000000000003
P4Se3,2.1248
K3Mo12PO40,2.1248
TiSiO4,2.1249
Na4FeNi(PO4)3,2.1249
BaSiO3,2.1249
K5CeFe2(NO2)12,2.1249
K6Pb2O5,2.1249
CaHgO2,2.125
NaTiAlSi(SO6)2,2.125
NaMg14BiO16,2.1251999999999995
LiVOF4,2.1252
CaLaCrWO6,2.1252000000000004
YClO,2.1253
KV2SeO7,2.1253
K2LaCuCl6,2.1253999999999995
LiTi3MnCr(PO4)6,2.1254
NaHfMg14O15,2.1254
CsUNbO6,2.1254
Mg6MnCoO8,2.1254
Cs2KGaBr6,2.1255
Rb2UCr2O10,2.1255
LiVP2O7,2.1256
Mg2SnS4,2.1256000000000004
BaFe2S2O,2.1257
KMo3(PO7)2,2.1257
NaMo3(PO7)2,2.1258
BaMnV2(AgO4)2,2.1259
RbBiO2,2.1259
CuH3NCl,2.1259
In2Br3,2.1261
U(HO)8,2.1262
Li7NbS6,2.1263
Rb2ErAuCl6,2.1263
Na42Mg8Nb16Si33(SO48)3,2.1263
SrSn(PO4)2,2.1264
Na15Ca4Nb8Si9(PO8)9,2.1264
ScAgO2,2.1264000000000003
SrMg2(GaN2)2,2.1265
K4Ge(PS3)4,2.1265
Na3TmTi2Nb2O12,2.1266
Co4Sn(CO)16,2.1266
Rb2Li4UO6,2.1266
Ca(SbO2)2,2.1267
Na6Nb2Zn4P6(SO12)3,2.1268
Li4Mn2Fe3P6WO24,2.1268
Li4Fe5P6WO24,2.1269
Na3VP8O23,2.1269
Li2AgF3,2.127
C10F3,2.127
VH5Se2NO7,2.127
BaSrCeHfO6,2.127
Co6Te3(ClO6)2,2.127
LiFe(CO3)2,2.1271
Er2CrSbO7,2.1271000000000004
Na2CoH12(SO7)2,2.1272
Sr2MgZn2Sn2(PO4)4,2.1273
Nb9PO25,2.1273
KPr5(CCl5)2,2.1273000000000004
LiVF5,2.1274
Sr3(AlN2)2,2.1274999999999995
Li6PS5Br,2.1276
MgInNi2SbO6,2.1276
Hg2GeS6Cl2O21,2.1278
Yb(YS2)2,2.1278
K4V5CdClO15,2.1279
B4N2O11,2.1279
Na3YTi3(PO4)6,2.1279
Ho6Mg(GeS7)2,2.128
Rb2GdAgCl6,2.128
Sr(SmS2)2,2.1281
La2Ti3(BiO6)2,2.1281
Sc(NF2)3,2.1281
Ag2Te4MoO12,2.1281000000000003
P3S3N6F5,2.1283000000000003
Na6In2Ga2Si3(SO8)3,2.1285000000000003
Cd3H36C10N5Cl11,2.1286
Rb2LiCeI6,2.1287
Mg(GaS2)2,2.1288
Y2Mn(GeO3)4,2.1289
Na3Ca2Ti2P3(SO8)3,2.129
Na4Sn2Ge5HO16,2.1290000000000004
K2NbAgS4,2.1291
BaC2,2.1291
Zn(SbO2)2,2.1291
Li2VCr(P2O7)2,2.1292
MgV2(FeO4)2,2.1292
LiVP4(H2O7)2,2.1292
MgV2CdO6,2.1292
Li5FeO4,2.1293
Ba2ScTi2BiO9,2.1294000000000004
La2YbS4,2.1295
Li5W2O7,2.1295
CsHoZnSe3,2.1295
Fe6Sn2(CO)23,2.1295
KCaNi2H3(SeO5)2,2.1295
K3TcC4(N2O)2,2.1296
Li9(FeO4)2,2.1297
HfBrN,2.1298000000000004
KSn2F5,2.1299
GaGeP(SO6)2,2.1299
MgCoO2,2.1299
Na9Ca4Nb8Si3(P5O24)3,2.1303
CsFeP2O7,2.1304
CsVSO6,2.1304
UH6C2(SO4)2,2.1304
Cs3SbS4,2.1305
Te2MoW3(Se2S)2,2.1305
Tl2HgTe,2.1305000000000005
Na3LaTi3(PO4)6,2.1306
Ho2MgAg2(WO4)4,2.1306
Mg3Si3(WO6)2,2.1308
Mg2SiSe4,2.131
MgAl2(CoO3)2,2.131
V5H18N3O17,2.131
Cs3Cu2Br5,2.131
Sr2NdBiO6,2.1311
Na3V2P2O10F,2.1311
NaFeH4SO6F,2.1312
XeO3,2.1312
Na5GdO4,2.1312
Na7Au5S6,2.1312
Ni(XeF7)4,2.1312999999999995
Ba3Ti3(BO6)2,2.1313
Li3VSi2O7,2.1313
Li2FeO2F,2.1313000000000004
Te2Mo3W(SeS2)2,2.1313000000000004
Na8Zn2In2Si3(SO8)3,2.1314
CoH12(BrO7)2,2.1314
Na6CaTi3Si2(PO6)4,2.1315
Li2Ti2MnCr2(PO4)6,2.1315
LiFe3P4O15,2.1315000000000004
VAsO5,2.1315000000000004
Li5AuO4,2.1316
KV2AgO6,2.1316
Li2MnCO4,2.1318
CeZr3O8,2.1318
FeBi25O39,2.1319
Li2MnFe(BO3)2,2.1319
Na5Zn2Sn2P5SO24,2.132
TeMoWSe2S,2.132
MgCd2(BiO3)2,2.1321
SnHg6(P2Cl3)2,2.1321
K3V(SO)2,2.1321000000000003
CaFe(GeO3)2,2.1322
K4MgZn4H16(Br3O2)4,2.1322
Na4SiSe4,2.1322
V3H4NO8,2.1322
Na6Hf4Si7Ge4S5O48,2.1322
KNaO,2.1322
PrFeH8C6(N3O2)2,2.1322
UH3CO6,2.1322
NaTi4P5SO24,2.1325
LiVCSO7,2.1325
Li2AlFeO4,2.1325000000000003
As3Pb5ClO9,2.1326
YPS4,2.1327
Na3U2H5(Se2O9)2,2.1328
CsRb2AlI6,2.1328
BaFe2(PO4)2,2.1328
RbMo3(PO7)2,2.1328
Li4Mn3Cr(PO4)4,2.1329
Lu2MgSe4,2.1329
TiZnN2,2.1329
Na8Ti3ZnSi5SO24,2.133
Li2VCr(P2O7)2,2.133
BaLaI5,2.1331
Na2Y2In2SiS5O24,2.1331
Sr2P7Br,2.1331
La5Sm3Cr7FeO24,2.1331999999999995
Na4MgTi3(PO4)6,2.1332000000000004
Ba2Cu(BO3)2,2.1333
NaAuF4,2.1333
Cs2Sr2O3,2.1334
YTl2P2S7,2.1334
Li2AlCr2SbO8,2.1334000000000004
Sr3DyRhO6,2.1335
Cs2V3O8,2.1336000000000004
CaCr2O4,2.1336000000000004
Na2NbGa3P4(SO12)2,2.1337
KLaYNbO6,2.1338
K3SbS4,2.1341
Li2Fe(PO4)2,2.1343
SmTl2P2S7,2.1344
Na9Fe3P8O29,2.1344000000000003
Li2VP2HO8,2.1345
LiCrPO4,2.1346
NaLi2N,2.1347
Zn3MoN4,2.1347
LiFe2OF3,2.1347000000000005
Na4UC3O11,2.1348000000000003
Li2VCrP2(HO5)2,2.1349
Na4SnH32(SeO4)4,2.1349
KLi2FeO3,2.1349
K2HgS2,2.1351
Na3SbO4,2.1351
CsV2P5O16,2.1352
KCaBiWO6,2.1352999999999995
K2H6PbO6,2.1354
CsHoS2,2.1354
CoH12C8S2(N3O)2,2.1355
Na7ZnSi3Ge3(PO8)3,2.1356
Rb3P3H5N,2.1356
Ni2GeO4,2.1356
KSnAsO5,2.1357
BaMg2H8Os,2.1357
Li2AlVO4,2.1358
Na2ZnS2,2.1358
As2PbO6,2.1358
Sm2SeO2,2.1358
Li6MnO3F2,2.1359
ZnWO4,2.1359
TlBi25O39,2.136
Bi2Ru3(CO)9,2.1361
NiH12(N3O2)2,2.1361
CrOF,2.1361000000000003
Na5Y2Ti2SiP5O24,2.1362
MgNb2(PbO3)3,2.1362000000000005
Cs3Hf2P5S18,2.1363000000000003
LiFeSiO4,2.1365