formula,band_gap (MP)
SnTe3O8,2.9395999999999995
Na10La4Zn4Si3(S3O16)3,2.9396000000000004
KMg3AlGe3(O5F)2,2.9397
K6Ba3Ta12(Si2O13)4,2.9397
Li4AlCr3O8,2.9397
Na7TaIn3Si3(PO8)3,2.9397
H4C(N3O)2,2.9397
NaLi2CoPCO7,2.9398
Nd10Si10N17ClO9,2.9399
Cs2HfO3,2.9399
Ca2WO5,2.9399
ThTi2O6,2.9400000000000004
Na2Y3TaP4(SO12)2,2.9401
BeZnS2,2.9402
Na30Ca4Ta20Si33(SO48)3,2.9402000000000004
Li3CoF6,2.9404000000000003
Ba4MnGa2(S3F2)2,2.9405
Sr3CaI8,2.9406
Sn2P2O7,2.9406
Rb3TlF6,2.9408
LiAsO3,2.9408
TlInAs2O7,2.9408000000000003
Si7GeN10,2.941
RbCO2,2.9410000000000003
Dy3Sb5O12,2.9411
Rb2LiSbCl6,2.9411000000000005
Ag2H12S(NO)4,2.9412000000000003
Sr3MgO4,2.9413
Li2MnFe(BO3)2,2.9413
LiMn2F5,2.9413
RbVH6SO9,2.9413
InH12C4Se2Cl3,2.9414
Ho6H40N8O49,2.9414
BAs5(Pb3O10)2,2.9414000000000007
ZnCo(SiO3)2,2.9415
Li2MnFe(BO3)2,2.9415
TcSb(OF4)2,2.9416
Sr3Y2(GeO4)3,2.9416
CsMg14TiO16,2.9417
TePbO3,2.9418
Na3Cr2(PO4)3,2.9419000000000004
Na9Mg4Ta8Si3(P5O24)3,2.9419000000000004
Sr2ScNbO6,2.942
Zr(MoO4)2,2.942
Sb4O5F2,2.9422
BaLaMgTaO6,2.9425
NaTaGa3P3(SO8)3,2.9425
CaTeO3,2.9425
Na2Te4WO12,2.9425000000000003
Na2MgZr3P4(SO12)2,2.9425000000000003
Cs2AlTlBr6,2.9426
NaZnAs(H2O3)2,2.9426
NaCoH3(CO2)3,2.9427000000000003
CsGd(MoO4)2,2.9428
PPb2IO4,2.9428000000000005
NaPHO3,2.9429
Na6Ta6Ga2Si9(SO16)3,2.9429
PtC2(ClO)2,2.9429
WF5,2.9429
NClO3,2.943
KNaV6(PbO3)8,2.943
TaGaSi(SO6)2,2.943
Cs2CuH8(SeO6)2,2.9431
Ta6TiTl2O18,2.9431
KTa3(TeO6)2,2.9431000000000003
Er6H40N8O49,2.9432
Ba(HO2)2,2.9433
Na8TaAl3Si5SO24,2.9433
TiAl2O5,2.9434
MgZr3Tl10(MoO4)12,2.9435
Na10Ta4Al4Si9(SO16)3,2.9436
Na2H8WO12,2.9437
RbMnF3,2.9437
Na14Ca6Hf2Si5S7O48,2.944
LiFe3SiPO8,2.9440000000000004
Cs3TaS4,2.9443
Li4Nd3SbTeO12,2.9443
Li2Se2O7,2.9445
Na2Zn(HO)4,2.9445
Nd10Si10BrN17O9,2.9445
Na3Nb4Si5PO24,2.9445
LiNbSn3(PO4)6,2.9448000000000003
Ta2Zn4O9,2.9448000000000003
Y2W2O9,2.9449
Na9Ta4Zn2Si6(PO12)3,2.9449999999999994
TeH21C7(NCl2)3,2.945
Al2Co3(SiO4)3,2.9450000000000003
H4C(N2O)4,2.9450000000000003
NaNO3,2.9451
Na2La4Al4SiS11O48,2.9451
NaMg30BO31,2.9451
Li2Co(SO4)2,2.9451
Na4LaGaSi(PO6)2,2.9452
CoH18Br2N6ClO3,2.9453
Li2Ni(CO3)2,2.9454
YBr3,2.9454
Rb3Cr(HO)6,2.9455
GdY3V4O16,2.9459
Li2Co(CO3)2,2.946
Ge7H18O23,2.946
Li3Sb(PO4)2,2.9461
LiFeSiO4,2.9462
BaV2ZnO7,2.9463000000000004
Li3Cr2(PO4)3,2.9463000000000004
Th2Cu(PO4)3,2.9463000000000004
SmSBr,2.9463000000000004
Na15Ca8Ta4P15(SO24)3,2.9464
Li4AlCr3O8,2.9464
Li2AlFeO4,2.9466
BaRe2H12C3N6O11,2.9466
Li2H2C6N9Cl,2.9466
Tl2ZnN12,2.9466
KAlO2,2.9467
KLi2(HO)3,2.9467
RbTiAsO5,2.9468
RbAl(H2N)4,2.9469000000000003
SbH18C3(NCl2)3,2.9469000000000003
Ta2Zn4O9,2.9471
MnAl2Sb2(PO4)6,2.9471
Na3ZrNb(SiO4)3,2.9472
Na3Si2Sn2PO12,2.9473
Na6Ta2Zn4P6(SO12)3,2.9473000000000003
PbWO4,2.9475
SrZnSnWO6,2.9475
SrZnCl2,2.9476
NaMg6WO8,2.9476000000000004
LiY3WO8,2.9477
AlPO4,2.9478
MgZr2(BiO4)2,2.9478
Mg14BCO16,2.9478
Tm2TiO5,2.9482
GaHg3AsSCl4,2.9482
YSnF5,2.9483
CsYMg30O32,2.9483000000000006
DyAlO3,2.9483000000000006
Si2SeN2,2.9484000000000004
Na3BO3,2.9485
Sr2Ga2O5,2.9485
Cs2SiS3,2.9485
Rb2HPd(CN)4,2.9488
K2LiNdI6,2.9488000000000003
LiSiBiO4,2.9488000000000003
Na7In2Si3Ge2(PO8)3,2.9489
Mg3Si3(SbO6)2,2.9489
Ba3CaI8,2.9489
Li8Mn5Fe3(BO3)8,2.9490000000000003
SeCl4,2.9491
Sn4P2O9,2.9492
GdTl(WO4)2,2.9492000000000003
Li2V3(P2O7)2,2.9492000000000003
CsMg30CrO32,2.9493
SmVO4,2.9494
NaAg(CN)2,2.9494
CsMg30BO32,2.9495999999999998
Na2ZnFeF7,2.9496
Sr3Nd10Al12Si18(N2O)18,2.9497
Mn3(PO4)2,2.9497
TaPNCl7,2.9498
Lu2TiO5,2.9498000000000006
C3F2,2.9499
Na10Zr4In4Si7S5O48,2.9499999999999997
TbAgH10C20(N3O4)2,2.9502
Na3Sc2Sn2P5SO24,2.9502000000000006
Rb2ZrO3,2.9504
BaLiLaTeO6,2.9506
SmTiClO3,2.9506
H5CN9O4,2.9506
K3VMo3H4O15,2.9506
LiCoPO4,2.950600000000001
P4WO12,2.9507
Na5Ta2Si5Ge2PO24,2.9507000000000003
Cs2LiSbCl6,2.9508
LiVF6,2.9508
BaCaPrSbO6,2.9508
TlPb2Br5,2.9509
Na3YTaSi2PO12,2.9509
Li4Mn3Fe(BO3)4,2.9509000000000007
Pb(CO)4,2.951
Cs2Xe(BrF7)4,2.9511000000000003
Li2VF4,2.9512
Rb2LiPrI6,2.9512
LiFeSiO4,2.9513000000000003
Na3Mg8Ta4P3(S5O24)3,2.9514
LiMnF3,2.9514
Li2Ni4OF8,2.9515
TeSeO4,2.9515
KAgC2(SN)2,2.9515
Na7MgGa3Si3(SO8)3,2.9515
Li2Ti(BO3)2,2.9516
LiCr(SiO3)2,2.9517
Li3Ti(PO4)2,2.9517
NaPaO3,2.952
Li8MnFe7(BO3)8,2.9522
Li2Hg(PO3)4,2.9522
NaCoF3,2.9522
Na9Ca8Ta4P9(SO8)9,2.9523
LiSiBiO4,2.9523
Na9Ta4Zn8P9(SO8)9,2.9523
Co7B24(H3O23)2,2.9523
Li6MnSiO6,2.9524000000000004
GdH6C4NO9,2.9525
Sr5La6Nb4O24,2.952500000000001
KAu(CN)2,2.9528
LiH2N,2.9528
Na8TaIn3Si5SO24,2.9529
Tm2TiO5,2.9529000000000005
Hf(MoO4)2,2.953
NaSrLaWO6,2.9531
Na4Hf3MgSi3(SO8)3,2.9531
SrGeTeO6,2.9532
Sr2InI5,2.9533
Sr2H3NO6,2.9533
LiMnPO4,2.9536
Tb2WO6,2.9538
Sr4NbAlO8,2.9538
Cr(PO3)2,2.954
NaFeF4,2.954
K10Zr3Cd(MoO4)12,2.9541
NaBrF4,2.9542
Na6Hf6Mg2Si5S7O48,2.9544999999999995
Ti3NbZnBi3O14,2.9545
H8PbC5S2IN,2.9546
Sr2Ta2O7,2.9546
MgCo(SiO3)2,2.9549000000000003
Na2CoH8(CO5)2,2.955
B10H33C10I,2.955
NaLi2Al3(SiO4)3,2.955
Ba6YI15,2.955
KSrLaWO6,2.9551000000000003
Na8Al2Zn2Si3(SO8)3,2.9552
KBaGd(MoO4)3,2.9552
K3BiO3,2.9552
Rb4Mo5H4Se2O23,2.9553
Ca2V2O7,2.9553000000000003
Sr2V3Bi3O14,2.9555
PBr2N,2.9555
KAg(PO3)2,2.9555
H10C2N12O5,2.9556
Mn2SnC10BrO10,2.9556
TlPb8Br9O4,2.9557
Dy6H40N8O49,2.9558
Na4LaInSi(PO6)2,2.9558
KSb(PO4)2,2.9559
CsKMg30O31,2.9559
Al2ZnS4,2.9560000000000004
Na2Li4Ni2C4SO16,2.9563
Ba2LaNbO6,2.9563
NdSn2P10Cl37O12,2.9565
Cs3P3HO9,2.9565
MgVBiO5,2.9565
SiI3,2.9566
H14Pb6C8O13,2.9566
CoP2H36C12Br2(N3O)2,2.9566
Na8Ca2Al2Si3(SO8)3,2.9567
Mg(AlS2)2,2.9567
SiPb4(BrO)4,2.9567000000000005
Na5Zn2Ga2P3(SO8)3,2.9567000000000005
Li4Mn3Fe(BO3)4,2.9568
Li4CO4,2.9568
Ba2WO5,2.9569
Cs2Ti(GeO3)3,2.9569
Mn2ZnP2H2O9,2.9569
NbSn(PO4)3,2.957
CsErSiS4,2.9570000000000003
CSCl2,2.9570000000000003
Mg30CdFeO32,2.9573
MnInF3,2.9574
Zr12Si2Bi2P16PbO72,2.9575
Co2PO4F,2.9575000000000005
Li2Fe2(SiO3)3,2.9576
Li2Si2NiO6,2.9578999999999995
CsSb(PO4)2,2.958
Sb3(BrF8)2,2.958
Sr5Al11TlSi13O48,2.958
Li2SnP2O7,2.958
Cs2RbNF6,2.9581
MoF3,2.9582
Na14Mg5Zr3Si6(SO8)6,2.9582999999999995
P2Os4C15O13F6,2.9584
BaZr2SnO6,2.9585000000000004
Li4Cr3GaO8,2.9587
Tb3SbO7,2.9589
Si2WO6,2.9590000000000005
Zn3TeAs2Pb3O14,2.9590999999999994
Li3NiAsCO7,2.9590999999999994
Li8Ni(O2F)2,2.9593
KSb3O5,2.9593000000000003
TmVO4,2.9595
CsScO2,2.9595
Li2MgZrO4,2.9598000000000004
LiFe4(PO4)3,2.9598000000000004
Li2Se,2.96
Ba2AlH7,2.96
K3SbBr6,2.96
Li2CrAsCO7,2.96
Li8Mn7Fe(BO3)8,2.9600000000000004
Na2Sr(Ge4O9)2,2.9601
Na6Sc4Ga4Si3(S3O16)3,2.9603
Na3Ta4Zn8P3(S5O24)3,2.9604
Na10Hf4In4Si7S5O48,2.9605
Li7Mn8(BO3)8,2.9605
GdP2H9O11,2.9608
Zr4Ti(PbO3)5,2.9608000000000003
Cs2LiPrI6,2.9609
Rb2Bi(IO3)5,2.9609000000000005
Sr2WO5,2.9611
KMg30WO32,2.9611
Na2V2ZnO7,2.9613
BaMg6MnO8,2.9614000000000003
Mg14ZnSnO16,2.961400000000001
CdH3Cl3O,2.9615
K3AsBr6,2.9616
LiFeSiO4,2.9616
Bi6O5F8,2.9616
LiCoPO4,2.9618
NiH14C2(NO)12,2.9618
SbOF,2.9618999999999995
Pb5(IF4)2,2.9619
BaSrPrNbO6,2.962
Li2V(PO4)2,2.962
Li2MnSiO4,2.9620999999999995
Na2Ge2O5,2.9621
Na2La3TaP4(SO12)2,2.9621000000000004
K2TeH6(O3F)2,2.9622
K3Sb2N2O6F7,2.9622
Li7Mn8(BO3)8,2.9624
NaCa2Zr2PS5O24,2.9624
Sr2Co(SeO3)3,2.9627
Li4Co3P4(H3O4)6,2.9627
Ba2GeO4,2.9627
NaMg3In(MoO4)5,2.9628
GdYV2O8,2.9628
KSrLaWO6,2.9628999999999994
KCr(MoO4)2,2.9629
Ba2CdGe2O7,2.9629000000000003
Ca3Si3(SbO6)2,2.9629000000000003
MgSi7N10,2.963
AlB2Pb6(OF)7,2.963
ReBiO5,2.9631
CdCNCl3,2.9631000000000003
NdAl6Si30(N15O)3,2.9631000000000007
Tb3SbO7,2.9632
Rb2LiNdI6,2.9632
CaTa2Bi2O9,2.9633000000000003
K10MnMo7O27,2.9634
Na2LaTa3Si2(PO6)4,2.9634
Na3Si2SnGePO12,2.9636
Cs2YInBr6,2.9636
Li7Mn8(BO3)8,2.9639000000000006
PWO4F,2.964
LiFeSiO4,2.9640000000000004
Li2VP2O7,2.9640000000000004
ZrMoWO8,2.9641
Mg3MoN4,2.9642
Li2Ni2(MoO4)3,2.9643
Na3Si2SnGePO12,2.9643
Na14Si11Ge8SO48,2.9644000000000004
Na2Er2B2TeO10,2.9645
Li8Mn7Fe(BO3)8,2.9645
Cs2Pb(ICl)2,2.9646000000000003
Li2MnSiO4,2.9647
Li4MnFe3(BO3)4,3.1115000000000004
Li2MnP2O7,3.1116
LiMg14TiO16,3.1116
TbAg(WO4)2,3.1116
Na4CaHf3Si3(SO8)3,3.1116
Tm2TeO6,3.1117000000000004
AlGaO3,3.1117000000000004
Na14Ca4Hf4Si7S5O48,3.1118
Li3Lu(NO3)6,3.1118
H4BrNO4,3.1119
MgGaBO4,3.112
Rb2NaPrI6,3.112
Rb2ZnI4,3.1121
Na2TiSiO5,3.1121
KSc(WO4)2,3.1121000000000003
TeC12(ClF5)2,3.1123
La2MgO4,3.112499999999999
Mg17(As3O16)2,3.1126000000000005
Li2CrSi3O8,3.1126000000000005
GaAg(SO4)2,3.1128
Li2Fe(CO3)2,3.1128
TmBiO3,3.1128000000000005
P2H24AuC8I,3.1130000000000004
KNb(BO3)2,3.1131
Li2FeF5,3.1132
K3Si6H6N11,3.1133
Ba4LiTa3O12,3.1133
Nd2WO6,3.1133
Ca5Bi6(Cl3O2)4,3.1134999999999997
La3Gd(ClO)4,3.1135
LiBiP2O7,3.1135
ErBiO3,3.1136000000000004
Sr3LaNb3O12,3.1136000000000004
Mg14CdFeO16,3.1138000000000003
Li2CoP2O7,3.1138000000000003
Sr3Nd4O9,3.1139
Na3Y2Ga2P3(SO8)3,3.1139
Rb2ZnI4,3.1143
RbGd(MoO4)2,3.1143
K8Ti5P2(O4F11)2,3.1144
SrCaPrSbO6,3.1144000000000003
CsHf2Br9,3.1146
RbNbAsClO5,3.1146000000000003
Lu3SbO7,3.1147
Cs2NaPrI6,3.1147
H8W3Se(NO6)2,3.1147
Na2Hf6Zn2Si3(S3O16)3,3.1149
H5(NO)3,3.1149
CdH6C(BrN)3,3.1149
SnF4,3.115
Zn4Si2H2O9,3.115
NaCaMn3Si5HO15,3.1151
Li2MnFe(BO3)2,3.1151
NaMg30WO32,3.1153000000000004
Gd2Mo5O18,3.1154
Na4Zr2Ti(CO4)4,3.1154
Na10La7TaSi6(SO8)6,3.1155
LiCrO2,3.1156
NbClF8,3.1157
LaCo(BO2)5,3.1157000000000004
Sr2ZnGe2O7,3.1158
K2NaNdI6,3.1158
Sm2MgMo2(I4O15)2,3.116
Li4MnFe3(BO3)4,3.1160999999999994
BaZrO3,3.1163
BaPS3,3.1164000000000005
Li4Cr3GaO8,3.1166
Ba2YCr2F11,3.1167
NaGaGeO4,3.1167
LiFeSi3O8,3.1168000000000005
Pb3IF5,3.1169
Er3Sb5O12,3.1169
RbNO3,3.1172
NaGdO2,3.1172000000000004
SbBr3,3.1173
LiNiPO4,3.1173
LiMo2P3O11,3.1175
Mg(SiO2)6,3.1178
CsTb(MoO4)2,3.1179
Na3LaTaSi2PO12,3.1179
LiMnPO4,3.1179
Rb3ScV2O8,3.118
Rb7Nd11Te12(Br4O9)4,3.1181
Zr(MoO4)2,3.1183
Cs2AlInCl6,3.1183
K2SbH5O6,3.1185
CoBH18N6(ClF2)2,3.1185
Li2CrP2O7,3.1186
MgNi2(PO4)2,3.1186
Li2VOF4,3.1186
KMg14BO15,3.1186000000000003
LiFePO4,3.1187
Cs2AuCl,3.119
Li2AlFeO4,3.119
C2N,3.119
Li2TeO3,3.1190999999999995
CuBP4H24C8(SF)4,3.1191
Al13(TlS7)3,3.1191
Sc3TaP2(SO6)4,3.1192
Pr4AlSi5(NO)7,3.1192
InSi2H19C7Br2,3.1192
MgTa2(FeO4)2,3.1194999999999995
Na9Ta10Zn2Si9(PO8)9,3.1194999999999995
Na10Y7TaSi6(SO8)6,3.1194999999999995
Y3ErTi4(SiO9)2,3.1195
Ca2Zr5Ti2O16,3.1195000000000004
KMg14BiO16,3.12
Mg5Al4Fe(SiO4)6,3.12
Al2NiO4,3.12
DyAg(WO4)2,3.1201
H8W3Se(NO6)2,3.1204
Ca(CO2)2,3.1204
Na8TaAl3Si4(PO12)2,3.1204
K5NaFe2(CO2)12,3.1205
Na3La3TaP5SO24,3.1205
Si3BiH27(C5Cl)2,3.1206
BaCaZr2O6,3.1207000000000003
Ni3(PO4)2,3.1208
NaCaGaSi2O7,3.1211
Pr2Te4MoO14,3.1211
RbGd(MoO4)2,3.1212
Nd3VGeO9,3.1213
Na2NbAsO6,3.1214
NaGaGeO4,3.1217
NaNb2H7O9,3.1217
Na3Si2Ge2PO12,3.1217999999999995
Na3TaIn3P5SO24,3.1217999999999995
Ca2Ga2GeO7,3.1220000000000003
Na7Si5Ge4PO24,3.1221
Li6Cu(B2O5)2,3.1221
Ca2Ta2O7,3.1222000000000003
Fe7P6(HO6)4,3.1224
SrPS3,3.1224
As3P3Pb10(ClO12)2,3.1225000000000005
Ba3V4PbO14,3.1227
Rb4(BS)9,3.1228
Ca2ZrTi(SiO5)2,3.1228
NaSbMoO5,3.1229
WOF4,3.1229000000000005
HoTiClO3,3.1229999999999998
LiH6BrO7,3.123
BaSrZr2O6,3.123
Si10(H3C)19,3.123
Gd2(WO4)3,3.1232
Y6WO12,3.1232
Rb2NaNdI6,3.1233
TiZnO3,3.1234
NaTa3GaSiP5O24,3.1235
Li2FeSiO4,3.1236
LiSiH19(C3N2)2,3.1236
Na2La4Hf4Si3(S3O16)3,3.1236999999999995
K3H5Pt,3.1237
LiMnF3,3.1237
RbGeBr3,3.1238
La3TiGa5O14,3.1238
BaMg14ZnO16,3.1238
CdH10S2(NO2)4,3.1241
Nd4Zr3TiO14,3.1241
LiFeF4,3.1241
CaTeO3,3.1241000000000003
CsB9O13,3.1242
LiCdPO4,3.1242
SrCaCr(PO4)2,3.1243
K2CrMo6H23O32,3.1246
LiSiBiO4,3.1247
Na2LiYBr6,3.1247
CaY2O4,3.1247
Sm2Ta2Cl2O7,3.1249
Li8Mn3Fe5(BO3)8,3.1249
BaLa2Br8,3.1249
Li2S,3.125
Na6La4Sc4Si3(S3O16)3,3.1250000000000004
Sr5Fe3F19,3.1251
KY(TeO3)2,3.1251
LiCoPO4,3.1251999999999995
Mn2PClO4,3.1252000000000004
SrP2WO8,3.1252000000000004
LuAlO3,3.1252000000000004
NaSnPCO7,3.1253
GaSi3PH30C10(NCl2)2,3.1254
P3H18RuC6(SO)6,3.1255
MgSeO4,3.1255
Pr3VGeO9,3.1255
LiCoPO4,3.1256
K2RbPrI6,3.1256000000000004
GdB2HO5,3.1258
Li8MnFe7(BO3)8,3.1258
CoH15N6(ClO)2,3.1259
Ba2TlF7,3.1260000000000003
Ga3Si5P10H36C12N4Cl11,3.1262
CsCr(MoO4)2,3.1264
HC2(NO2)2,3.1266
Li2Ti3ZnO8,3.1268
Li2Fe3F8,3.1268
Cs2Mo4O13,3.1268
P4WO12,3.127
LiFeF4,3.127
Li7Cr3(SiO6)2,3.127
K2RbTbV2O8,3.1271
CaTm2(GeO3)4,3.1273
Li3CrSiO5,3.1273
Ba3V2Ni6(PO6)4,3.1274
Li2MnFe(BO3)2,3.1274999999999995
Rb2MoSeO6,3.1275
VH4NO3,3.1275000000000004
Na2In2P2SO12,3.1276
Nd2Te4MoO14,3.1276
K2NaBiBr6,3.1276
CaLu2(GeO3)4,3.1276
NaHO,3.1277
CaNiP2O7,3.1278999999999995
Li3Cr2(PO4)3,3.1279
ZrH32C10IN5,3.1279
LiSi2BiO6,3.1279000000000003
Li3Pr3(TeO6)2,3.1280999999999994
LiSn2(PO4)3,3.1282
HgH8C2S2(NCl)4,3.1283000000000003
H7NO6,3.1283000000000003
Li2SnO3,3.1283000000000003
Rb4Mn(MoO4)3,3.1284
H4N2O3,3.1285000000000003
K2RbNdI6,3.1287000000000003
NdBrO2,3.1288
Na2CoP2O7,3.1288000000000005
Li2Fe2Si2O7,3.1288000000000005
KGaO2,3.1289
BaCa2I6,3.1290000000000004
Ba2SrTeO6,3.1291999999999995
Li2Fe2Si2O7,3.1291999999999995
BaGaH5,3.1292
Cs3BiO3,3.1293
TaNbSi2SO12,3.1293
Na2Ta3GaSi2(PO6)4,3.1294
Ho3Sb5O12,3.1294
MgSi2SnO6,3.1294000000000004
Sr2AlH7,3.1294000000000004
Na2S2O5,3.1295
Nd2CoTe2(SO7)2,3.1295
BaLa2O4,3.1295
Li4MnFe3(BO3)4,3.1295
K2NaYI6,3.1299
Ba3Te4O11,3.1301
SnH22(Cl3O5)2,3.1302
BiOF,3.1303
MnZnP2O7,3.1303
Na12Ca4Ta2Si3(PO6)6,3.1304
CrP2H14C9O4,3.1304000000000003
Na4InGaSi2SO12,3.1304000000000003
Ga3PO7,3.1305000000000005
Na14Ta4Al4Si11SO48,3.1307
SrV2(H4O5)2,3.1307
BaCr2(P2O7)2,3.1307
Sr(H8O5)2,3.1307
ReO2F3,3.1308
SrNi2Te3(ClO4)2,3.1308
Mn2PC11SO8F9,3.1308
CaMg30CO32,3.1309
LiSb(SO4)2,3.1309
Li2MnFe(BO3)2,3.1309000000000005
Na3Ca4Ta2P3(SO6)6,3.131
MgMnSiO4,3.131
Ba(NbN2)2,3.1312
Na3As4H5O14,3.1313
Na6HfZn3Si2(SO6)4,3.1313
MoF4,3.1313
RbHo(MoO4)2,3.1313000000000004
Li3Nd3(TeO6)2,3.1314
CaZr2PbO6,3.1314
LaTaP2SO12,3.1315
LiFe4(PO4)3,3.1316
SbClF8,3.1317000000000004
LiSbP2O7,3.1317000000000004
Sn4OF6,3.1317000000000004
LiFeF3,3.1318
Zr(MoO4)2,3.1318
BaMg14CO16,3.1318
Na4HfSi3GeO12,3.1318
NdSbMo2O9,3.1318
MoH4C(NO2)2,3.1319
Y2W2O9,3.1319000000000004
LaIn(SO4)3,3.132
GdNi(BO2)5,3.132
NaCa3MgFe(Si2O7)2,3.132000000000001
SrCrP2O7,3.1321
Na4YTa3Si4(PO12)2,3.1321000000000003
Na4CaZnSi(SO6)2,3.1322
Ni(HO)2,3.1323
NaLiAl4(SiO6)2,3.1323000000000003
K2NaSbCl6,3.1323000000000003
AgP2H8SN7O2,3.1324
NaLiV2O6,3.1324
LiFePO4,3.1324
Li3InCl6,3.1326
FeF3,3.1326
CoAs4F18,3.1327
KMnPH2O5,3.1331
Na2ScAgCl6,3.1331
Na5Ta2Si5Sn2PO24,3.1332
Pr8Br13N3O,3.1333
LiTi2N3,3.1335
BaLa2Te5O14,3.1335
Na10Ta6In2Si11SO48,3.1335
Ca(GaO2)2,3.1337
Pb2SO5,3.1338
TeSO5,3.1339
Li4Zr8V3(P3O16)3,3.1339
Li5La3(SbO6)2,3.133900000000001
BaLiAl3P2(HO7)2,3.1339999999999995
LiFePO4,3.1340000000000003
Li5CrP2(O4F)2,3.134100000000001
HoBiO3,3.1343
ThTe2WO9,3.1343000000000005
TlGeF3,3.1344000000000003
K2NaGdCl6,3.1345
GdLuO3,3.1346
Na2TaNb(SiO4)3,3.1347
Na3TaGaSi2PO12,3.1348
Pr(NO3)3,3.1349
Na5ZrZn3P3(SO8)3,3.1349
Na4CO4,3.135
BaCa2I6,3.1352
RbNb(BO3)2,3.1355
NaZnGa(SO4)3,3.1355
Mn(ReO4)2,3.1355
RbMg30BiO32,3.1355000000000004
Sn(C4N3)2,3.1357
LiH2N,3.1358
Rb2NaBiBr6,3.136
Li12Fe3NiP4(CO7)4,3.1360999999999994
H7C2SBrN4,3.1361
AsHPbO4,3.1361000000000003
Na2ScTa3Si2(PO6)4,3.1362
VH8C2N2O6F,3.1362
Na5Ta2Ga2Si3(PO8)3,3.1362
Cs3GdCl6,3.1365
Na2ZnSiO4,3.1365
Sr2NbGaO6,3.1367
CaH8(BrO6)2,3.1367000000000003
Nd(NO3)3,3.1368
K2Mo4O13,3.1369
Cs2ScTlBr6,3.1371
Na2FeCSO7,3.1371
Ga2WO6,3.1372
CsK2SbF6,3.1372
Li2Zn2(MoO4)3,3.1374
La(NO3)3,3.1374
La2WO6,3.1375000000000006
Ba3Nb2(P2O9)2,3.1376
Ba4CaZr5O15,3.1377
Rb2Ti(SiO3)3,3.1377000000000006
Na14Hf4Zn4Si7S5O48,3.1377999999999995
Mg30CdCO32,3.1379
Na2Sc8SiS11O48,3.138
MgCrH22O15,3.138
Na3Bi(BO3)2,3.1381
Li3Tm3(TeO6)2,3.1382
Li4Mn3Fe(PO4)4,3.1382
K3VSO3,3.1383
Cs2CrH8Cl5O4,3.1383
CaCrF5,3.1383
Rb2NaYI6,3.1384
CoPH3O5,3.1384
La(IO3)3,3.1384000000000003
LiNiPO4,3.1385
GdH18C4N6Cl3O8,3.1385
Li3Er(NO3)6,3.1386000000000003
KTm(MoO4)2,3.1386000000000003
LiMnF3,3.1386000000000003
KH5C3N2O5,3.1387
Lu2WO6,3.1387
NdH12C2N7O13,3.1387
TaTl(PO4)2,3.139
Rb6Si2O7,3.139
Li2Ti2AsPO10,3.139
RbHf2Br9,3.139
SmAg(WO4)2,3.139
NaYTa(PO4)3,3.1392
BaSr3I8,3.1392
Cs4Fe3F10,3.1395
PbCSNCl,3.1395000000000004
InMoHSeO7,3.1396
Li2Bi2B2O7,3.1397
Li2Mn3F8,3.1398
BaLiPrTeO6,3.1399
SrLiPrTeO6,3.1401
Rb2Mo2O7,3.1403
LiVF6,3.1403000000000003
NaGdRe4(H2O5)4,3.1404
Na3TaAlSi2PO12,3.1404
YScO3,3.1406
PrH6(CO3)3,3.1406
H8AuC2S2BrN4,3.1406
LiNiPO4,3.1407
P2SeO3,3.1407
H22RhC3(N3O4)2,3.1407
KNdYSbO6,3.1408
CsCaH3,3.1408
Li2FeO2,3.1408000000000005
LiMnPO4,3.1409
Rb6Pb5Cl16,3.1411
MnZnP2O7,3.1413
Na5Li3Ti5O14,3.1413
ZnSi2SnO6,3.1413999999999995
Tb3Sb5O12,3.1414000000000004
Li2FeSiO4,3.1415
KTbNdSbO6,3.1416
LiSiBiO4,3.1417
KNO3,3.1418
GdScO3,3.1418000000000004
NaI3O8,3.1418000000000004
BaSrCaWO6,3.1419
Li3FePCO7,3.142
Na2CO3,3.1421
Ca4Ta2(SO4)9,3.1421
ErTiClO3,3.1421
Na4Ta3AlSi5SO24,3.1422000000000003
LiCr(PO3)3,3.1423000000000005
LiMnP3HO10,3.1423999999999994
K2Mo2O7,3.1424
Cs3As5O9,3.1425
CaTa5(PO4)9,3.1427
Zn2SiH2O5,3.1428
Ba2GdV3O11,3.143
TiZnH12(OF)6,3.1431000000000004
RbSc(WO4)2,3.1431000000000004
Ta2Zn4O9,3.1432
K2CN2,3.1433
Dy2W2O9,3.1434
NdAg(WO4)2,3.1434999999999995
Na6Co(SO4)4,3.1435
ScH3Br3N,3.1435000000000004
Na4AlCr3(P2O7)4,3.1436
Na14Y8Si7S5O48,3.1436
NaH2CSO4F3,3.1436
Co4GeP4(H6O11)2,3.1437
Na3FeF6,3.1439
LiRe(OF2)2,3.1439000000000004
TmAg(WO4)2,3.1444
NaAlGeO4,3.1446000000000005
Mg2Ta4P6(SO12)3,3.1447
Cs3ZnI5,3.1447
CsTiZnOF5,3.1448
KGdP2H4O9,3.1449
Gd2HfO5,3.1449000000000003
AlSnP(SO6)2,3.1449000000000007
K2NaAsCl6,3.145
ThV2H4O9,3.1451
ThTi2O6,3.1452
LiSb2P3O11,3.1453
K3GdSi2O7,3.1454
NaPr9Si6(SO12)2,3.1455999999999995
BaH6(C2O5)2,3.1456
K4TiO4,3.1456
Ba3SrSb2O9,3.1456
Ca2ScNbO6,3.1457000000000006
LiGa5O8,3.1458
Yb2MgV2O8,3.1459
NaLaTa(PO4)3,3.146
Ba3CaTiWO9,3.146
NiH44C12(N5O8)2,3.146
CsCoPO4,3.146
Li8Mn3Fe5(BO3)8,3.1461
Na6Zr4Ta4Si9(SO16)3,3.1461
Bi2Te2SeO10,3.1462000000000003
KLaMg14O16,3.1463
AgH12C6N13O3,3.1463
Ca4Al6TeO12,3.1465
LiCd2HSe2O7,3.1466
CsTaWO6,3.1466000000000003
Sm(NO3)3,3.1467
MgSi4NiO10,3.1467
LaTiNbO6,3.1468000000000003
Cs3ZnI4NO3,3.147
Li10Si2PbO10,3.1471000000000005
Sr2LiZrCrO6,3.1472
NaHS,3.1472
Na5Gd4Si4O16F,3.1472
RbSi2H18C6N,3.1473
TlZnAsO4,3.1473000000000004
CrH12C2(N3O2)2,3.1474
Na2ZnInP(SO6)2,3.1475000000000004
Hg2C2N2O,3.1476
CoH22C3(N3O4)2,3.1476
NdH6SNO10,3.1477
Nd3Lu2(GaO4)3,3.1478
SrH(IO3)2,3.1479
Li2Mg3Ti6O16,3.1479
NaIn2P(SO6)2,3.1481000000000003
Na3Al2Ge2P5SO24,3.1482
Li4Zr3O8,3.1482
KTa5O13,3.1482
Rb2NaAsCl6,3.1484
Ca10P6O25,3.1485
Sr2Co(PO4)2,3.1488
KAsO3,3.1488
Na3Ta2Zn4P3(SO6)6,3.1488
Na4Sc3Ta(PO4)6,3.1489000000000003
La6NbGa11O28,3.1489000000000003
Na3VSO3,3.149
RbNa3Fe7(PO4)6,3.1491
LiWF6,3.1491
Li4MnFe3(BO3)4,3.1491
Li4Cr3GaO8,3.1494
LiCo(PO3)3,3.1495
Tb2Si4CN6,3.1495999999999995
Ca4Co3Si8NiO24,3.1496000000000004
LaH4C4NO8,3.1498
Tl2Pd(CN)4,3.1499
CaSbF5,3.1499
GaBN2,3.1499000000000006
B2TeO5,3.15
K2Te2O5,3.1500000000000004
LiNiPO4,3.1501
NdH6(CO3)3,3.1503
Na6Hf6Zn2Si5S7O48,3.1503
LiFeF4,3.1503
Na10Hf4Ga4Si7S5O48,3.1504000000000003
Ta2Zn4(SO4)9,3.1505
Na7Li3V10O30,3.1505
KH(CO2)2,3.1506
CoP4O11,3.1506000000000007
Na7CaIn3(PO4)6,3.1507999999999994
LiMg2H7Ru,3.151
Ho2TiO5,3.1512
Ba3Ta2NiO9,3.1512
Mg14CrCO16,3.151299999999999
NaGaBP2H3O10,3.1513
Ba3WO6,3.1514
Na2Te4O9,3.1514
Na3GdV2O8,3.1514
Zn2SiH2O5,3.1515
K2RbSmV2O8,3.1515
LaSbMo2O9,3.1516999999999995
Sb2H30C9(NCl3)3,3.1517
Cs2NaYI6,3.1517
BaLaBr5,3.1518
Sm3TaO7,3.1519000000000004
CsMgI3,3.152
NiH12(NO6)2,3.1523
AgSbC2N2(ClF3)2,3.1523000000000003
KLiTi2(PO5)2,3.1523000000000003
Mg3ZnO4,3.1526000000000005
Na3LaZnSi(SO6)2,3.1527
Er2WO6,3.1527000000000003
Ni3B7BrO13,3.1528
Cs3Gd(PO4)2,3.1528
Li4MnFe3(BO3)4,3.153
LiCoPO4,3.1530000000000005
Na12Mg2Ta10Si15(SO24)3,3.1531
Mg14BWO16,3.1531
LiGa(WO4)2,3.1533999999999995
H20SN8O13,3.1534
Na4TaAl3(PO4)6,3.1534
TbTaTiO6,3.1535
Ba3(H6Ir)2,3.1535
Cs3B(SeO4)3,3.1535
Na10Ta6Ga2Si11SO48,3.1536
BaTe4O9,3.1536
Y2Th5O13,3.1537999999999995
KCr(SO4)2,3.1539
Na6Al4Fe(Si4O13)2,3.1539
LiMnPO4,3.154
RbC2I3N2,3.1541
TeAsHO5,3.1542000000000003
Ba4ZrO6,3.1542000000000003
Gd2Zr2O7,3.1543
SrH2,3.1544
LiMnPO4,3.1544
Na3NbAs2O9,3.1544
Nd3Sb5O12,3.1547000000000005
Nd6Mo10O39,3.1549
LiVF6,3.1549
Rb2Mo3O10,3.155
Ca3TiNiO6,3.1552
PrBrO2,3.1552
TiCl4,3.1553
YTa7O19,3.1554
K2InH2Cl5O,3.1554
SbTeClO3,3.1556
Th2Ta6O19,3.1556
Zr7N2O11,3.1558
KCrNiF6,3.1558
Bi5(PO5)3,3.1558999999999995
TbTiClO3,3.156
Ta2Tl2P7HO24,3.1562
Y3Sn4BiO14,3.1568
Zn2H10N12O5,3.1568
CaVBiO5,3.1569
RbP2WO8,3.1569000000000003
Ti3TeO8,3.157
LiFePO4,3.157
AgBF4,3.157
Na3LiV4O12,3.157
BaAl4S7,3.1571
Na14Hf4In4Si9(SO16)3,3.1572