formula,band_gap (MP)
LiVF5,1.5804
Li4VP2(O4F)2,1.5804999999999998
FeHC2O3,1.5805999999999998
KSi,1.5811
UCl6,1.5811
HfO3F4,1.5811000000000002
Na30Nb8Zn16Si15(S7O48)3,1.5811000000000002
CrO,1.5811000000000002
MnOF,1.5812
Li5Fe8(BO3)8,1.5812
Na10Ca4In4Si3(S3O16)3,1.5812999999999997
Zr2N2O,1.5814000000000004
SmTl(PSe3)2,1.5815000000000006
Ca2MoWO6,1.5816
CsLa2Ti2NbO10,1.5818999999999996
NaCaAs,1.5819
K6CdO4,1.5819
Na2MgV2Cd2O8,1.582
Rb2AgBiBr6,1.582
K2OsNCl5,1.5820000000000003
Na2AgSbCl6,1.5820999999999998
NaY2Ga2PS5O24,1.5821
FePH12(CCl)4,1.5822
Sr2MgZrCoO6,1.5822000000000005
Ba4U8As2O33,1.5822999999999998
Ba2NbCrO6,1.5823999999999998
MgMn2(WO4)2,1.5824999999999996
Li3V2CrO6,1.5825000000000005
LiCr3P3(HO6)2,1.5828999999999995
CsMg6BO7,1.5829
Na2Zn5Sn3(SO4)12,1.5830000000000002
Li15W7N19,1.5830000000000002
GdY(FeO3)2,1.5830999999999995
Rb3AgO2,1.5831
LiCa2ReO6,1.5831
Cd2Ni6Te3PbO18,1.5835999999999997
Te2Mo2SeS,1.5835999999999997
Rb2LiVS4,1.5836
Li4Fe3Co(PO4)4,1.5837
K2ScAuF6,1.5837
ErVO3,1.5838
SbICl8,1.5838
Ga2NiO4,1.5838999999999994
Se,1.5839
CaSnS3,1.584
Li5V(PO4)3,1.5841
Li4TiS4,1.5841
Sr6Mg(Te4O11)2,1.5841999999999992
Fe7(PO5)4,1.5842
Li3V5O12,1.5843000000000005
Cd4Ge(SeS)3,1.5844
Li4Co(OF)2,1.5844
Tb2MgCr2O8,1.5844
K2CrAuF6,1.5844
CaFe3Si2O9,1.5845
Li4Fe2P4H3O16,1.5845
Mg6AlBiO8,1.5845000000000002
MgFe4NiO8,1.5845000000000002
TaVO4,1.5845999999999996
MgCd2(CoO3)2,1.5846
Mg(ScS2)2,1.5846
TlHgAsS3,1.5846
KMg14BO15,1.5846999999999998
SbH6C(NCl2)3,1.5847
MoSCl7O,1.5847
TaCu3TeSe2S,1.5847000000000002
SbTe7SXeCl(OF4)9,1.5847000000000002
NaAlB14,1.5847999999999995
Na2YGe(PO4)3,1.5848
BaMg30MnO32,1.5848999999999993
K2PdC4(SN)4,1.585
TiPbO3,1.585
YMnGaO5,1.585
CoH8C6(N3O)2,1.5851
FeSNO,1.5851000000000002
Na4Mg(FeO2)4,1.5852
ZnAgF3,1.5852
YCo(WO4)2,1.5853000000000002
RbTiCu3Se4,1.5854
Li4Mo3O8,1.5854999999999997
VHg4P2O9,1.5856
Na2SO5,1.5858
Mn2Al2O7,1.5858
Na4Mn2P2O7F6,1.5858
FeHO2,1.5858
Rb3BP2,1.5859
CeP2O7,1.5859
AlBiO3,1.5859999999999994
Na2MgGe3P4(SO12)2,1.5861
K2GdAuCl6,1.5861999999999998
Hg2ClO,1.5862
KBaBiTeO6,1.5862999999999996
Sr6Mg(Te4O11)2,1.5863
Li9Mn2Co5O16,1.5863
MgV2(OF3)2,1.5863
Sr2Mg(MoO4)2,1.5864999999999996
LiVOF3,1.5865
CaLa2Co2Sb2(PbO6)2,1.5866999999999996
KVH2SO7,1.5867
KMg14WO16,1.5868000000000002
Cs3BrO,1.5868000000000002
Cd5Fe2(P2O7)4,1.5868000000000002
Mn(C2N3)2,1.5869
KLi2FeO3,1.5869
Ba3In2O5F2,1.5869000000000004
Cd3(BO3)2,1.5869999999999995
LiVFe(P2O7)2,1.5870000000000002
Nd2TeS2,1.5871
HfCrO3,1.5871000000000004
Hg3AsO4,1.5872
Sr2La3Ti2Cr3O15,1.5872000000000002
Rb2MnF5,1.5873
V2SiO4,1.5873
AlP2I9,1.5873
CsLaZnTe3,1.5873999999999997
Ba2H2Pd(S5O17)2,1.5874
V4OF11,1.5875
Li8VNi3(PO4)6,1.5875
Li6V3P8O29,1.5876
Cs2LiVS4,1.5878
BaNa6O4,1.5878
YNi3Se2ClO8,1.5878
Ca(IO2)2,1.5879
RbMgNbO3,1.5879000000000003
TlAgAs2PbS5,1.5879999999999996
La5Se6N,1.5880999999999998
H4Pd(NO4)2,1.5880999999999998
Na10Ca3Ge5(PO4)12,1.5881000000000003
K2MgFe4P6(O4F3)4,1.5881000000000003
Li4V3CrO8,1.5881000000000003
Cd2Mo3O8,1.5881000000000003
LaFe4(BiO4)3,1.5881999999999996
Li6V3P8O29,1.5882999999999998
Na3MgNbSi2SO12,1.5882999999999998
Sr2MgZrCrO6,1.5884999999999998
Hg4P2O7,1.5884999999999998
MgCd2(CoO3)2,1.5884999999999998
LaNb3O9,1.5885
YEr(FeO3)2,1.5885000000000002
MgMn(Ni3O4)2,1.5885999999999996
Pr3CuSiS7,1.5885999999999996
Cs2AgAsCl6,1.5886000000000002
UTe3Pb2O11,1.5886999999999991
DyY(FeO3)2,1.5887000000000002
Sm2MgS4,1.5887000000000002
NaFeAsO4F,1.5887000000000002
Dy2MgSe4,1.5888
Li4V3CrO8,1.5888
Sr2LaTi2Nb3O15,1.5888
Na2CrH2F8,1.589
La4Ti5(TeO8)3,1.5890000000000004
K2TcC2S4NO4,1.5891000000000002
Na3Ca5Nb(SO4)9,1.5892
HoTaO4,1.5892
Ca(BiO2)2,1.5892
MgCrFe(BiO3)2,1.5892999999999995
K2MgFe4P6(O4F3)4,1.5893000000000002
Zn(FeO2)2,1.5894000000000004
Na3NiO2,1.5896
LiZnRhF6,1.5896
MgTiV4FeO12,1.5899
Sr12Al14O33,1.59
Cs2Te(H3O5)2,1.5900999999999998
Na2Nb5Ga3Si6(SO8)6,1.5900999999999998
Ta10Zn2Si9(SO8)9,1.5901
Ho2MgSe4,1.5904000000000005
LiVOF3,1.5907
Ba3SrLu2(BiO6)2,1.5910000000000002
MnH6(OF)3,1.5910000000000002
Cs2AlTlI6,1.5910999999999995
KH2C4N3O4,1.5912
Ga(BiBr)4,1.5912000000000002
Li9Mn2Co5O16,1.5913
Cs2Se,1.5913
Li2Mn(PO3)5,1.5914
Cs2LiMnO4,1.5915
Er2FeSbO7,1.5915000000000008
Cd2As2O7,1.5916
NaNb(CuS2)2,1.5916
LiVF5,1.5917
MgVFe(P2O7)2,1.5917
Li7Mn2(CoO4)3,1.5918
CsNb4Ag(PS10)2,1.5918
MgCr2(ClO)4,1.5918
LiNiSbO4,1.5919
BC6XeF11,1.5919
Te4Mo3W(SeS)2,1.5919999999999996
Yb4CdS7,1.5919999999999996
Tl3SbS3,1.592
CaFeBP2(HO5)2,1.592
LiCuCO3,1.5920000000000003
Li5VO3F2,1.5920999999999998
BaMo(PO4)2,1.5921000000000003
H4N2O3,1.5921999999999998
NaInGeP2SO12,1.5921999999999998
Na3CoO3,1.5922
LiUNbO6,1.5923999999999998
Y4Co13Si2(SbO14)2,1.5925000000000002
Rb4PbO4,1.5927000000000002
Gd2Nb2N2O5,1.593
U(BiO3)2,1.593
Ca(BiO2)2,1.593
Li4VCr3O8,1.5930000000000004
Ca3Ge3(RhO6)2,1.5931000000000002
Li5Fe8(BO3)8,1.5931000000000002
VP(H2O3)2,1.5931000000000002
CsAu(SO4)2,1.5932
Li32Ti13Cr3O48,1.5932000000000002
Li2VCrO4,1.5932999999999995
Sr3U11O36,1.5934
Sr2LiReO6,1.5935
Ba2SrTa6(Bi2O9)3,1.5936
Cs3LaO3,1.5936999999999997
NbBr5,1.5937
Cs3Ag9(SbS3)4,1.5938999999999997
ZnNiP2WO9,1.5939
H6PbCI3N,1.594
Ba2GdBiO6,1.5940999999999996
K3SnIrCl8,1.5941
LaFe5Bi4O15,1.5941
NaCNO2,1.5941999999999998
LiV2OF5,1.5942
BaLiV2Ni3(HO5)2,1.5942000000000005
Li4Nb2V3Fe3O16,1.5942000000000005
LiFe2(BO3)2,1.5942999999999998
LiVFe(P2O7)2,1.5942999999999998
Cd2AsHO5,1.5943
Fe(C4N3)2,1.5943000000000005
Na5Y3TiSi3(SO8)3,1.5944
MgUO4,1.5947000000000005
La5AgS8,1.5947000000000005
YCuPbS3,1.594799999999999
LiSbPO5,1.5947999999999998
Na2Nb4Si7Sn4S5O48,1.595
Rb6HgS4,1.5950000000000002
Li2VCrO4,1.5951000000000004
LiMnB3(HO3)3,1.5952
LiCuS,1.5952000000000002
YbMgS3,1.5952999999999995
Ba4(PtO3)3,1.5953000000000004
VP2(NO4)2,1.5954
Fe3OF5,1.5957
NaLiO,1.5957
CsMnCrF6,1.5958
VSb(SeO3)4,1.5958
Ca2PI,1.5958999999999994
Na3MgVH6O7,1.5959
Na2Zr4Si5Ge4S7O48,1.5959
CoI(NO)2,1.5959
TeMo2Se2S,1.5959
MgFe4(OF)4,1.5959
MgV(TeO3)4,1.596
CrPO4,1.5961
VOF2,1.5961
AsXe2F9,1.5961
Te3WO12,1.5961000000000003
MnBr2,1.5962
CrCoO4,1.5962
VOF2,1.5966999999999998
Mg(BC)2,1.5968
Ba3FeGe5O14,1.597
KInCl3,1.5970999999999995
Rb2Ag2Sn(PSe3)3,1.5971
AlWN3,1.5971
Nb4VO12,1.5973
Na5CoHO4,1.5973000000000002
CaZnO2,1.5973000000000002
CsHfMg14O15,1.5973000000000006
V3(H3O5)2,1.5975
Na2U2O7,1.5976000000000004
Rb2PdN2(ClO2)2,1.5977
Na18Ta16Zn8Si21(S5O48)3,1.5977
Li12VNi3P4(CO7)4,1.5977
Cs2LiMoCl6,1.5978
DyCuPbS3,1.5979
Sr2Ti6N2O11,1.5979
MgV6(HO3)6,1.598
TaCu3Se4,1.5980000000000003
Mg2Al3CrS8,1.5980000000000008
Na10Zn2Si7Sn6S5O48,1.5981999999999998
BaS2,1.5981999999999998
Mn2VPO7,1.5981999999999998
PtCI2O,1.5982
K6Al11Si13Ag5O48,1.5983
NaLi(AsS2)2,1.5983999999999998
LaGaSe2O,1.5984999999999996
Li2VOF4,1.5987
Cr2FeO4,1.5987
Na4Mg(MoO4)2,1.5988999999999998
TiH14(OF)6,1.5989
Ir2(Se3Cl2)3,1.5989000000000002
SrMn(GeO3)2,1.5991
Sb4Cl13F7,1.5991
MgV2(OF3)2,1.5993000000000002
Ag4Hg4S4BrCl3,1.5993999999999997
Rb2Ti(AgS2)2,1.5994
Li3VSiBO7,1.5995
HoCuPbS3,1.5995999999999997
LiVFe(P2O7)2,1.5996
MgH20C4Br2(N4O3)2,1.5996
Ba3V2(PO5)3,1.5997
Cr2F5,1.5997
Li6AsS5I,1.5997999999999997
SnS8(N2Cl)4,1.5998
Li2Cr(SiO3)2,1.5998
K3NiO2,1.5999
Li2NbCr3O8,1.5999
Ba(NdSe2)2,1.5999
Na4Ti2Al2Si3(SO8)3,1.5999
Nb12WO33,1.5999
YNb3Si3(SO8)3,1.6
K2TlGaBr6,1.6
MgSn2P2O9,1.6000999999999994
Y2VO5,1.6001
NiO2,1.6001000000000003
LiCrPO4,1.6001999999999992
K4CO4,1.6002
Na5Fe2P2(CO7)2,1.6004
Gd2MnSbO7,1.6004000000000005
LiTb4Al2(FeO6)2,1.6005000000000005
Li5CoO4,1.6006000000000002
BaMgNiF7,1.6007
FeSn(PO4)2,1.6008
Li5Fe(SiO4)2,1.6009
LiNdS2,1.6009000000000002
LiCu3(SiO3)2,1.601
Rb8U9O31,1.601
VCrO4,1.6011
RbSmGeSe4,1.6011000000000002
Ti4S8Cl6O,1.6012
Li7Mn2(CoO4)3,1.6012999999999995
Li2NbCr3O8,1.6013000000000002
K2RbMoBr6,1.6014
Zr2N2O,1.6014999999999997
LiCePCO7,1.6015
MgFe4(PO4)4,1.6015
MgFe6O7F5,1.6016
Na14Mg5Si6Sn3(SO8)6,1.6016999999999997
CsMgFe(MoO4)2,1.6018
Li2MoO3,1.6018
SiO2,1.6018
MgMn2Al2O6,1.6018000000000008
MgCr6O16,1.6019
GeClO2F5,1.602
Te2Mo3W(SeS2)2,1.602
BaU11(GeO19)2,1.6020999999999996
VPO7,1.6021
SbBrO,1.6021
K3Nb2Cu3Se8,1.6021
WS2,1.6021
NiPtF6,1.6021
KSrCeBiO6,1.6021
K5Na3Ta5Nb3O24,1.6022
TaFeO4,1.6022000000000003
Hg2P4PdO8,1.6023
Mg14BSbO16,1.6023000000000005
Ca2CrWO6,1.6023000000000005
Si2H2O3,1.6023999999999998
Li3Nb2Fe3O10,1.6023999999999998
Rb2NaGaBr6,1.6023999999999998
Cs2Th2P2Se13,1.6023999999999998
Li2CrFeO4,1.6024000000000005
BaTi4Bi4O15,1.6025
VF3,1.6025
K2AgSbCl6,1.6025
Tm2MgS4,1.6025
ZnNiP2WO9,1.6025
AuSO4,1.6027
MgMn2V2(BiO5)2,1.6027
Ho2MgAg2(WO4)4,1.6027000000000005
MgTi2(Fe2O5)2,1.6027000000000005
Li8FeCo3O8,1.6028999999999998
Na5AsO5,1.6028999999999998
BaCaPrBiO6,1.6029
Na2P2PdO7,1.6031000000000002
TeMoWSe2S,1.6031000000000002
Sr3Sc2Cu2S2O5,1.6032000000000002
Zr(SO3)2,1.6033
Na5Zn3GeP3(SO8)3,1.6034
CrSbO4,1.6034000000000002
TcAgO4,1.6034000000000002
CoSb(CO)3,1.6035
UVAgO6,1.6036
KMg14BO15,1.6036
CaPrMgBiO6,1.6036000000000006
Bi2WO6,1.6037
Ho3CuSiSe7,1.6037000000000003
CaMn(GeO3)2,1.6037000000000003
Ho10Ti6O27,1.6039000000000003
FeBiC6(N3O2)2,1.604
CsGaSe3,1.6041
H4N2O3,1.6042
Li4VCr3O8,1.6042
Ba3Sc2N4,1.6042
Cs3Ag(AsSe2)4,1.6042999999999998
Ag2BrNO3,1.6045
LiErSe2,1.6045000000000005
FeAg(SeO3)2,1.6046
CoH8(CO2)4,1.6046
H8PtO6,1.6046999999999998
FePO4,1.6047
HfMg6TiO8,1.6047999999999991
BaCaDyVO6,1.6048
NaCaFe2(SiO3)4,1.6048999999999998
Cs3InI6,1.6049
Na3CuO2,1.605
Li2VFeP2(O4F)2,1.6052
LiFe2(PO4)2,1.6052
MgVFe(P2O7)2,1.6052000000000002
CsNaMo(HO2)2,1.6053
MnNb4O12,1.6053
MgBiWO5,1.6053000000000002
Cs2Ti(AgS2)2,1.6053000000000002
Zn3Fe8CoO16,1.6054999999999997
HfMg6CoO8,1.605599999999999
Li2CrF4,1.6057
TiTl2(TeO4)3,1.6058
Zr2N2O,1.6059
Ba2NdMgSbO6,1.6060000000000003
GdFe4(BiO4)3,1.6060999999999996
CoTe(PbO3)2,1.6060999999999996
Cr3(FeO6)2,1.6062
CaCeV2O8,1.6062
Ni17(As3O16)2,1.6063
Li8VO6,1.6063999999999998
Ca2Nb2CrO8,1.6063999999999998
Pm2MgSe4,1.6063999999999998
SiO2,1.6065
K2PbCl6,1.6065
Mg(FeO2)2,1.6065000000000005
LiV2OF5,1.6066000000000005
Rb3NpH8O9,1.6067
Li3Fe2(SiO4)2,1.6067999999999998
Zn(FeO2)2,1.6068000000000002
LiFe2(BO3)2,1.6068999999999998
Pr2MgMn2(GeO5)2,1.6069
Na2U2O7,1.6069000000000004
KCaCeBiO6,1.6069999999999998
V3OF11,1.6069999999999998
LiVOF3,1.607
K5Na3Ta4Nb4O24,1.6070999999999998
ZnNiF6,1.6071
Cs2NaGaBr6,1.6072
CaP4(Br3O)4,1.6072
HoCuS2,1.6072999999999995
Ca2TiO4,1.6073
Gd2VFeO6,1.6075
MgCoO2,1.6075
Li2NiOF2,1.6075999999999997
MgFe4(OF)4,1.6076
Lu2ScV3O9,1.6076999999999997
MgVBiO4,1.6077
V4O5F7,1.6077
Sr(BeN)2,1.6078999999999994
P4W3O14,1.6079
Rb8Mg(FeO4)2,1.6079
Si6Bi3N11,1.6079999999999997
CrCo3C16NO14,1.608
Rb8Fe2O7,1.6081
Mo2P2O9,1.6082
BaNa2O2,1.6082999999999998
Li5SbS4,1.6083
Cs2KMoBr6,1.6085
Hg3(PS4)2,1.6085999999999998
Li3MnF6,1.6087
MgCrF6,1.6087
MgV2(OF3)2,1.6087
K2Sm2Mg(MoO4)4,1.6087000000000002
Sb(PO3)4,1.6088000000000002
Zn3InCuS5,1.609
MgCrAsO5,1.6090000000000004
Na4YSi2GePO12,1.6092000000000002
NiSb3XeF23,1.6092999999999995
Sr2AlGaSn2O7,1.6094
Na10Y4Si7Ge4S5O48,1.6094000000000002
SrCaYVO6,1.6094000000000004
MnH30C8(N13O9)2,1.6095
Cr2WO6,1.6095999999999997
AlInSe3,1.6095999999999997
C,1.6096
Rb4Cu5Cl9,1.6096
MgV2H2O5,1.6096000000000004
GaHO2,1.6097999999999997
Fe2(TeO3)3,1.6098
V2(SO4)3,1.6098
Ba2PrMgSbO6,1.6098000000000003
Li4VCr3O8,1.6098000000000003
Na2InAsF6,1.6098999999999997
K2Gd2Mg(MoO4)4,1.6099
PtO2,1.6099
BaSrYVO6,1.6099000000000006
ZnCu2SiS4,1.6100000000000003
Ca3Fe4(SbO4)6,1.6100999999999996
BaV3O8,1.6101
TbBi5O9,1.6102
La4FeSe6O,1.6102
MgSb3XeF23,1.6103
Ca2AlVO5,1.6103999999999994
Na6Sc6Ta2Si5S7O48,1.6104
Li6VSb3(PO4)6,1.6104999999999996
SiMoO4,1.6105999999999998
LiAuS,1.6105999999999998
Na8MgSi5Ge3SO24,1.6106000000000005
Zr2N2O,1.6107
Li2V3O3F5,1.6107999999999998
Hg3SbAsS3,1.6107999999999998
BaHg2(ClO)2,1.6109999999999998
SrMg14SiO16,1.6110000000000009
Ca2V3O8,1.6111
Na2Ta2In6Si3(S3O16)3,1.6113
V3(H3O5)2,1.6114000000000002
Li6V3P8O29,1.6115
K2MnV4O12,1.6115
BaYInWO6,1.6116
TiSnO4,1.6117
La2Cu2SeSO2,1.6117000000000008
Tl2CuAsO4,1.6119
K5RbZn4Sn5S17,1.612
Nd5AgS8,1.6121999999999996
VCrO3,1.6122999999999994
KLaNb4O12,1.6122999999999998
InPO6,1.6123999999999998
K2SnBr6,1.6124
Li2Mn(CoO3)2,1.6124
Mo3W(SeS)4,1.6124999999999998
Sr(FeO2)2,1.6125
Er2Mo3H2Se2O17,1.6125000000000005
Na4MgSi2GeSO12,1.6126
K7LiSi8,1.6126999999999998
Cs3ClO,1.6127999999999998
Na7Fe4(PO4)6,1.6128000000000002
K2YNb5O15,1.6128000000000002
CrBrO,1.6129000000000002
ScSb3Pb4O13,1.6129999999999995
ScPO6,1.613
Li4FeSb(TeO6)2,1.6130999999999998
LiMn3H6(SeO3)8,1.6130999999999998
VAg2AsO6,1.6130999999999998
VCrO3,1.6132999999999995
RbAsSe2,1.6133
Sr2YVO6,1.6134
Dy(SN)3,1.6134
AlSb(WO4)2,1.6134000000000004
Sc3NbSiS5O24,1.6135000000000002
Cs2U2O7,1.6135000000000002
Ca2YVO5,1.6137
Ca(CoO2)2,1.6139
CoF4,1.614
Ba2ZnAg2(SeO)2,1.6140999999999996
MgCrF6,1.6141
Ga2TeSe2,1.6141000000000003
Te4Mo3WSe4,1.6141999999999994
FeH16C4N2Cl5,1.6142
La4Cu4SeS3O4,1.6142999999999992
Rb3NaPbO4,1.6142999999999998
LiCu(PO3)2,1.6143999999999998
Na6MgV2(SO3)2,1.6144999999999998
Na8Zn3Si3Ge(SO8)3,1.6145999999999998
LiFe2(BO3)2,1.6146
Ba2S3,1.6147999999999998
Li3Fe8(BO3)8,1.6148999999999998
ZnNiF5,1.6149
Na4Ti2Ga2Si3(SO8)3,1.615
Fe4O3F5,1.615
Ti(Sn2O5)2,1.6151
LiErSe2,1.6151
TaCu3(TeSe)2,1.6151000000000004
Mg30CrFeO32,1.6152999999999995
MgTi2Tl2W2(O5F)2,1.6153000000000004
LiV2OF5,1.6154000000000002
Te2MoWSe2,1.6154000000000002
SrCaDyVO6,1.6157000000000004
ZnCo(GeO3)2,1.6158
Tl2S5,1.6159000000000003
CsMo3I7,1.6159999999999997
LiNbNiO4,1.6159999999999997
CoSb3(PO4)6,1.616
BaC2,1.616
UZnH5(SeO5)2,1.6161
W3O8,1.6162
Cs4Sr(SnSe3)3,1.6162
V2NiO6,1.6162999999999998
H6N4O9,1.6163
NaCr(PS3)2,1.6163999999999996
Mo3WSe8,1.6164
K2NbCuSe4,1.6164
MgFe6O7F5,1.6164999999999998
Pr(WO3)2,1.6166
MgV6(HO3)6,1.6166
BaSrGdBiO6,1.6166
LiFeO2,1.6166999999999998
SrCaTbVO6,1.6166999999999998
Te(WO4)3,1.6167
Na4TiZnSi(PO6)2,1.6168
LiVOF2,1.6168000000000002
MgAlCrO4,1.6168000000000005
K2MgMn3V2(HO5)2,1.6168999999999998
Li6V3Fe(PO4)6,1.6169000000000002
Ge6Bi3N11,1.617
LiFeP2O7,1.6172
YCrF5,1.6172000000000002
CaSnS3,1.6173000000000002
Cs2PH4Se3O2,1.6174000000000002
H8PtO6,1.6174000000000002
Li3VS4,1.6175
NaVSiCO7,1.6175000000000002
K2U2O7,1.6176
PaBr5,1.6176
CoH2SeO4,1.6176
SrMo3(PO7)2,1.6176000000000004
CaBiIO2,1.6177
BaSrTbVO6,1.6178
AlSbO4,1.6178
ThI4,1.6178
TeAs(SeF3)2,1.6178
NdCuSO,1.6179999999999994
Li2Fe3P5O18,1.618
NaGaTe2,1.6181
Ti2CoO5,1.6182000000000003
Th2TeN2,1.6182999999999996
NbAg2(PS4)2,1.6183
CdC3NO6,1.6183
Nb2Tl5S4Cl9,1.6183
Sr2TaCoO6,1.6183000000000003
Ho2MgS4,1.6183999999999998
NaLa2Sn2P3(SO8)3,1.6183999999999998
RbLaZr6FeCl18,1.6184
H5IO6,1.6184
Sr2TbVO6,1.6184000000000005
KMg30BO31,1.6184999999999992
MgFeO2,1.6185
La9Ga5S21,1.6185
PmInO3,1.6185
La3BeBiS7,1.6185999999999998
LiFe6(OF2)4,1.6187
V2FeAg3O8,1.6188000000000002
MgHg2(BiO3)2,1.6188000000000002
NaZn2Sn2PS5O24,1.6189
AlCo(WO4)2,1.6189999999999998
Sr3Tm3Al4Si8N17O4,1.6189999999999998
Li2MnF5,1.619
Ba(PrSe2)2,1.6190000000000002
MgFe4(OF)4,1.6190000000000002
Ba3Zn5In2O11,1.6191
Te4MoW3(SeS)2,1.6191
VCl2O,1.6191
YCr3O6,1.6191
Pm2Se3,1.6191999999999998
Li4Ti4V(Fe2O9)2,1.6191999999999998
Ho2Au5F21,1.6192
Zn2CrWO6,1.6192000000000002
Mg14VSiO16,1.619200000000001
MgV2Te2O7F2,1.6192999999999995
ScP,1.6192999999999995
Na2VSiCO7,1.6193
Gd2MgMo2(ClO4)2,1.6193000000000002
Ti3(SnO5)2,1.6193999999999995
CrPO5,1.6195
MgFe4As2O11,1.6195
Ca2V3Co2AgO12,1.6195000000000004
SrLiNdCoO4,1.6195999999999997
MgVFeP2(O4F)2,1.6196000000000002
P2PdO6,1.6196000000000002
Na2Hf4Nb4Si7S5O48,1.6197
LiZn(HCl)3,1.6197
NaV(PO4)2,1.6197
Li5Fe8(BO3)8,1.6197
K2FeO4,1.6197
Hf2N2O,1.6197999999999997
Cs3TlO3,1.6198
Zn3PBr3,1.6198
Sm3TaO7,1.6199000000000003
Li2MnBr4,1.62
TeMoWSe2S,1.62
BaCaYVO6,1.6203
Li9V3P8O29,1.6203
CoHRu3(CO)13,1.6203
MnSbO4,1.6205999999999996
AlAg(PSe3)2,1.6205999999999996
NClOF4,1.6206999999999998
Li2V2OF6,1.6207
Mg30CdSiO32,1.6208
La4FeSe6O,1.6208999999999998
Tb2MgV2O8,1.6209000000000002
BaMg30SiO32,1.620900000000001
V4O7F5,1.6211000000000002
Na2O,1.6211999999999998
Ho2Sb2O7,1.6212
Li4MoP2O9,1.6212000000000002
Ta2MnO6,1.6212999999999995
Ir(SeBr3)3,1.6213
Zn2CrFe3O8,1.6213000000000002
MoCl4O,1.4552
NbBr5,1.4552999999999998
AgC3N3O,1.4554999999999998
Li3Fe8(BO3)8,1.4555
Cs2BaO2,1.4555
Zn4CdS5,1.4555000000000002
Li6V3P8O29,1.4555999999999998
ErCu(WO4)2,1.4556
Sr3LiAs2H,1.4556
Ba3MgGeN4,1.4556000000000004
Hg3(SBr)2,1.4557
K5Na3Nb8O24,1.4558
Ti(FeO2)2,1.4558
La2MgMoO6,1.4558999999999995
AgSbC6N4(OF3)2,1.4559
PdPb2Se2(ClO3)2,1.456
LiV3OF11,1.4560000000000002
Cs2Ta6PbCl18,1.4561000000000002
Te2Mo3W(Se2S)2,1.4562
MgTiV(PO4)3,1.4562
Mn3V6(FeO6)4,1.4562000000000002
MgV4O7F5,1.4564
Li5Fe8(BO3)8,1.4565
BaLa2ZnS5,1.4565
Cd(FeO2)2,1.4565
Ba5Cr3F18,1.4566
Mn2O3F,1.4567
Na2ZnO2,1.4567
CoH15N6(ClO)2,1.4568
Mn2V2O7,1.4568
MgV(TeO3)4,1.4568000000000003
V2Co(PO5)2,1.457
V4O5F7,1.457
Te6Mo3WS2,1.4571
Li2MoO3,1.4571
Sr2MgZrVO6,1.4571000000000005
CsCu3O2,1.4572
MgTi4(FeO4)3,1.4573
NaMgV2Bi3O10,1.4574000000000005
NaSbN2,1.4574000000000007
K3La(PSe4)2,1.4575
Cd3(BO3)2,1.4576
Na6Nb16Zn8Si15(S7O48)3,1.4576000000000002
Er2MgS4,1.4576999999999996
Te2MoW3(Se2S)2,1.4577
YMgMo3O8,1.4577999999999998
WBr4O,1.458
K2Th(PSe3)3,1.458
Li2V(PO4)2,1.4581999999999995
Rb2Ni2O3,1.4583
LuCuS2,1.4584
Ce(WO4)2,1.4584
Ba10LiW7O30,1.4584000000000006
Na3NbZnSi2SO12,1.4585
BaNp(HO2)3,1.4587
Li4Ti9O20,1.4587
Sr(YSe2)2,1.4587000000000003
Li4MnCo2O7,1.4587999999999997
Nd2PbSe4,1.4589999999999996
KNb(AgSe2)2,1.459
Ag5BiO4,1.459
HgHOF,1.4590999999999998
V3(HO2)4,1.4590999999999998
Sr2HfMgFeO6,1.4590999999999998
K3Yb(SO4)3,1.4591
Ag2H2IOF,1.4591
Li32Ti13Cr3O48,1.4592
C3Cl2O,1.4592
MgB7,1.4592
O2,1.4592
LiFe3(OF3)2,1.4592999999999998
Cs4Nb2S11,1.4593
Na6Y4Ti4Si5S7O48,1.4593000000000005
Ba7Cu3H17,1.4593999999999998
KTcCl3,1.4596
VAg3HgO4,1.4596999999999998
Na2Li3CoO4,1.4597
RbMg30SbO32,1.4597999999999995
CrCl3,1.4598
Al(BiCl)4,1.4598000000000002
K3VS4,1.46
KAu(SO4)2,1.46
NiPt(CN)6,1.4603000000000002
Ce3ZrO8,1.4603000000000002
Si4P4Ru,1.4604
MnCo2TeO6,1.4605000000000006
Br,1.4606
Na9Nb7Zn5Si9(SO8)9,1.4606
Li9Mn2Co5O16,1.4606
Co2Hg2H2S2O11,1.4606
YW3O8,1.4606000000000003
Mn3Al2F15,1.4607
Rb3TlO3,1.4608
USO6,1.4608
Li2Ti(TeO4)3,1.4608999999999996
Ho3CuSnS7,1.4608999999999996
MgV2O4,1.4609000000000003
Na7TaZn3Si3(SO8)3,1.4611
RbAuO2,1.4611
MgMn2(FeO2)4,1.4611
CsTiCu3Se4,1.4611
NaV5O8,1.4611000000000005
KFeSn3O8,1.4611999999999998
Na5CoO4,1.4612999999999998
HoZn(SbO3)2,1.4613
Na3LaMn3(AsO5)3,1.4613
CaMg14VO16,1.4613000000000005
CuBO2,1.4613999999999994
Na2CaSi10(H3O10)2,1.4613999999999998
C(Se2Br)2,1.4614
Ba2LuMgSbO6,1.4614999999999996
LuHSe,1.4615
NiO2,1.4616999999999998
K2AlAgBr6,1.4617
LuBi2ClO4,1.4617999999999998
Li7Mn4CoO12,1.4619
Li6V3P8O29,1.4619
ZnP2,1.4620000000000002
Li4TiV4(Fe2O9)2,1.4623
Na6Ti4Ga4Si5S7O48,1.4623999999999997
KAuN12,1.4624
NbCu3(SeS)2,1.4624
IO2,1.4625
LiSiB6,1.4627
Sr9Fe(PO4)7,1.4627
MgZn3O4,1.4627
Sr(YbS2)2,1.4628
Cd2SiO4,1.463
ThPbI6,1.4630000000000003
Na2PtO2,1.4632999999999998
Li10Si(PSe6)2,1.4633
Na2SmCuCl6,1.4634
LiCuCO3,1.4634
YMgMo3O8,1.4634999999999998
Na2Ti4Zn4SiS11O48,1.4635000000000002
HoCrTeO6,1.4636
H6N4O9,1.4636
NaCaHfBiO6,1.4638
As4(Pb3S5)3,1.4638000000000004
MgHg8(W2O7)4,1.4639000000000002
DyCrTeO6,1.4639000000000002
SrMnSnWO6,1.4639000000000006
Cs4Re6C4S9N4,1.4641000000000002
Dy9B5S21,1.4641000000000002
K5Na3Ta3Nb5O24,1.4641000000000002
Ba2Co(PO4)2,1.4643
Li3Mn2P4HO14,1.4643000000000002
LiFe5(OF2)4,1.4643000000000002
BaSrPdF6,1.4644
LiFe2(BO3)2,1.4644
LiV3OF11,1.4645
CoH9C4(NO2)3,1.4646
TiBi8W(BrO8)2,1.4646999999999997
LiFeP2O7,1.4647
KMnO2,1.4647
Sr4PdO6,1.4647
LiV(TeO4)3,1.4647
Ba2LaAg5S6,1.4647000000000006
MoS2,1.4648999999999996
Li6V3P8O29,1.465
Te2MoWSe2,1.4651999999999998
Li4MnCo2O7,1.4651999999999998
Sm7V(Se2O)4,1.4652000000000005
Li24Ti11CrO36,1.4654999999999998
Co6C13(SeO6)2,1.4655
Na2Si5Sn4Ge4S7O48,1.4655
CsPdCl3,1.4655
LaTiAgO4,1.4657
Na2Al2Si3O14,1.4657999999999998
MgFe2(OF)2,1.4657999999999998
Sr2VO4,1.4657999999999998
Li2SbS2,1.4659
Dy2MgV2O7,1.4659999999999995
MgV4SnO12,1.466
Na42Nb4Zn20Si15(S7O48)3,1.466
Na6MnNi3(SbO6)2,1.4660000000000002
Li10Ti2Fe3Co3O16,1.4660999999999995
Ba3Al3P5,1.4661
RbSr2Nb3O10,1.4661000000000002
Ba4Mg(SiN3)2,1.4661000000000004
Rb4Nb2S10O,1.4662
Yb(ErS2)2,1.4662999999999995