formula,band_gap (MP)
ZnH2SeO5,2.7214
Cs2Ni(NO3)4,2.7215
Os3C10SO10,2.7216
K2Sn(GeO3)3,2.7216
NaNbSn3(PO4)6,2.7217
Ba5(Ga3O7)2,2.7217
Tb2Sn2O7,2.7218
CsTi2P3(O5F2)2,2.7218
SmTiNbBi2O9,2.722
NaAlGeP2SO12,2.7220999999999997
LiVF6,2.7221
Na14Mg8Si3(S3O16)3,2.7222
Cs3CdH5,2.7222
CsBPb(IF2)2,2.7223
Li4Zn(PS4)2,2.7225
Na3Ta8Zn4P15(SO24)3,2.7226
Li6Cr9(PO4)8,2.7226000000000004
Na3Ti2Si2PO12,2.722700000000001
KZnSi3(H11C4)3,2.7228
Na6Co2C4SO16,2.7228000000000003
Li3Cr(PO4)2,2.7229
Li2O,2.723
BaLaBr5,2.7230000000000003
BNF4,2.7231
NaCr(SO4)2,2.7232
NbGaP2SO12,2.7232
Ba2YI7,2.7232
HgH12C2(Br2N3)2,2.7234
Na3Ti2Si2PO12,2.7236
Ca2WO5,2.7236
RbVH6SeO9,2.7238
Ba4Sn3O10,2.7238
MgMo2(Cl4O)2,2.7239
TeH2NF5,2.724
LiVP3H8O13,2.7241
BaMg(SbO3)2,2.7242
HgCl,2.7243000000000004
LiMn4(PO4)3,2.7244
Ti4Tl2O9,2.7244999999999995
FePO4,2.7245
MgV(PO3)4,2.7247
BPBr6,2.7247000000000003
CaCrF5,2.7248
Li3BiO3,2.7248
VZn2BiO6,2.7248
Li2Cr(Si2O5)2,2.7249
SrH3C3O7,2.7249000000000003
Li10Zn(PS4)4,2.7251
Na9Ta2Zn4(PO4)9,2.7252
Li3Cr2(PO4)3,2.7254
NaLi9Fe10(SiO3)20,2.7254
La3NbO7,2.7255000000000003
Tb2Ti2O7,2.7256
GaSnP(SO6)2,2.7257
CrP3H17N3O13,2.7258
Zn(SbO2)2,2.7258
TiTe3O8,2.7258
GaH5(NF)2,2.7259
Zr5Ti7O24,2.7259999999999995
K2TlAsF6,2.726
K2NaAg3(CN)6,2.7261
Li2Mn3F8,2.7261
Na2TiSi4O11,2.7261999999999995
Li2FeF5,2.7262000000000004
Al2CdS4,2.7263
Dy2Ti2O7,2.7263
CsSbWO6,2.7263
Mg14VCuO16,2.7263
TlHg5Cl11,2.7263
Li3AlMo2(AsO7)2,2.7264
Ca10Ge16(B2O17)3,2.7264
Ca9La5Br33,2.7265
Na4AgCl5,2.7265
C4NCl2,2.7265
Li4VFe3(PO4)4,2.7265999999999995
HS3N,2.7266
Na3BSbAsO7,2.7266000000000004
K3Gd(BH4)6,2.7268
Na2CrCoF7,2.7271
NaTaZnP2SO12,2.7271
K9Nd(PS4)4,2.7271
LiFeMoClO4,2.7275
ReBi3O8,2.7276
TlGaF6,2.7277
VZnH14(O2F)4,2.7277
I2O5,2.7278
Sm2Th3O9,2.7281
W3O8,2.7282
K3CaV5O15,2.7283
DyMoClO4,2.7283000000000004
NaLa4I7N2,2.7284
Na7La2Si3Sn2(PO8)3,2.7285
LiNiPO4,2.7285
Na8Mg3Zr(PO4)6,2.7286
Li2Ti4Co(AsO5)4,2.7286
Ca2Mn7Si10H12O35,2.7286
Cs3ScO3,2.7287
Ba3Nb2ZnO9,2.7287
LiFeF4,2.7288
Gd3GaO6,2.7288999999999994
BaLa2(SiS4)2,2.7289000000000003
Cs2HgBr4,2.7292
Fe2AsH19SO18,2.7292
Sb2XeF12,2.7297
LiFe5P3O13,2.7297
BaLi(BS2)3,2.7298
Cd(BO2)2,2.7302
Ca3Ga2(SnO4)3,2.7302000000000004
KrF2,2.7303
C3IF2,2.7303
Rb3Nb5P2O19,2.7304
LiBiB2O5,2.7304000000000004
CsTaV2O8,2.7305
LiCr2P5O16,2.7306
Sm2Ti2O7,2.7306
Li2SnBPO7,2.7307
Na8In2Si5Sn2SO24,2.7307
Cs2GaAgF6,2.7308
K3NaCr2O8,2.7309
RbVOF3,2.731
TmSb(PbO3)2,2.731
KBH4C4(N2O)4,2.731
LiNO3,2.7310000000000003
LiGeBO4,2.7311
TmTl(WO4)2,2.7311
SrLi(BS2)3,2.7311
LiZnPS4,2.7311999999999994
Mg14FeCuO16,2.7313
NaAlAs2O7,2.7313
Pb12BrCl7O8,2.7313999999999994
Pr3SbO7,2.7314000000000003
V2GePb5O12,2.7314000000000003
LiGaGeO4,2.7315
NaBiF6,2.7315
Li4Zn(PS4)2,2.7315
Mg2V2O7,2.7317
LiVF6,2.7317
Al2Ga2Bi2O9,2.7318
BaCa2Tm10O18,2.7319
TiP2O7,2.7319
Tl4Ni7(PO4)6,2.732
Cs2B12H2OF12,2.7322
LiNiPO4,2.7322999999999995
S3N2O5,2.7323
RbMnVO4,2.7323
InPO4,2.7323000000000004
Na7TaZn3(PO4)6,2.7324
KCO2,2.7324
Li3VB4O9,2.7324
Bi5IO7,2.7325000000000004
H2C3N2O3,2.7327
KBaCr2(PO4)3,2.7328
TlV2SbO8,2.7329
Na14Sc4In4Si7S5O48,2.7329
LiNiPO4,2.733
La4MgGa2(FeO6)2,2.7330000000000005
RbCr(SO4)2,2.7331
FePO4,2.7331000000000003
BaTi(S2O7)3,2.7332
Cs2AgBr3,2.7333
LiFeSiO4,2.7333
Bi2Te4O11,2.7334000000000005
SmH12(NO5)3,2.7338
AlVP2C2N2O9,2.7338
ZnTe(H2N)4,2.7338
Na10Nb7Ga(SiO4)12,2.7338
BaTi(IO3)6,2.7339
PrCrTeO6,2.7341
Mg2B24C,2.7342000000000004
CoH5SeClO5,2.7343
CsXe3O3F13,2.7343
CaO2,2.7345
CoH16C3N8O7,2.7347
Ca2Ta2SnO8,2.7348
Li6NiO4,2.7349
V2H15(NO4)3,2.735
ZnNiSnP2O9,2.735
Na6W6Se2O25,2.7351
Li4V(BO3)2,2.7351
InBiO3,2.7352000000000007
Sm2Sn2O7,2.7353000000000005
K2HfF6,2.7355
Li2VF4,2.7356000000000003
Ca2CrH2I2O11,2.7357
Li4CrP6(H4O11)2,2.736
Li12MnNi3P4(CO7)4,2.736
LuVO4,2.736
Li2O,2.736
Ba4Nb2WO12,2.7361000000000004
Gd2Mo(SeO4)3,2.7361999999999997
NaTi2Ga5O12,2.7362
NaVMoO6,2.7363
Na10Mg3Zr5Si6(SO8)6,2.7363
Na2H6C4O7,2.7364
CsPbCl3,2.7365000000000004
Zn8B3H3O14,2.7366
TiPb(S2O7)3,2.7366
AgAs(S8F3)2,2.7366
CrNi2BO5,2.7366
Rb3PS4,2.7368
Li4Zn(PS4)2,2.7368
Gd2B(OF)3,2.7369
LaAl33O51,2.736999999999999
HfSnP2SO12,2.737
Na4C2O5,2.7373
LiBiB2O5,2.7373000000000003
Rb3H5Pt,2.7373000000000003
Na10Hf4Nb4Si11SO48,2.7375
Na6Al4Ga4Si3(S3O16)3,2.7375
Li3Sb2(PO4)3,2.7376
Rb3CoNCl4O3,2.7376
Li2MnSiO4,2.7378
TiAs2O7,2.7379
H4N2O3,2.7379
Na6Y4Zr4Si5S7O48,2.7379
S5(IO9)2,2.738
NaTi2BiO6,2.7382
TiP2Cl8O3,2.7383
Na14Sc6Ta2Si9(SO16)3,2.7383
Sm2TiO5,2.7385
NbAlO4,2.7385
TiTeO3F2,2.7386
CsCr(SO4)2,2.7386000000000004
KAs4BrO6,2.7387
NaGaO2,2.7387
Na10YNb7(SiO4)12,2.7387
Th(N4O9)2,2.7389
CdFeC5N6O,2.7390000000000003
Na6Sc3NbSi2(PO6)4,2.7391
MgZr3SiS5O24,2.7393
Zr3Ti2(PbO3)5,2.7393000000000005
MgH8C6S2(NO4)2,2.7395
Co3P4H48(NO15)2,2.7396
K3Gd5(PO4)6,2.7396000000000003
B2(CN2)3,2.7396000000000003
Nd2Ti2O7,2.7397
TlGa(SeO4)2,2.7398
NbSn6OF15,2.7399
Na14Ga8Si7S5O48,2.7399
Cs4HfO4,2.7399000000000004
Na14Ti4Si11Sn4SO48,2.7401000000000004
K2CoH2(SO5)2,2.7402
LiVMoO6,2.7403
Li5Co2(PO4)3,2.7404
RbH(CO)4,2.7404
LiSbWO6,2.7405
Na14Mg5Sn3(PO4)12,2.7405
LiNb3(Bi2O7)2,2.7406
LiNiPO4,2.7406999999999995
Na14Si11Sn4Ge4SO48,2.7407000000000004
H18WC6,2.7408
Na6Ta2Zn4Si3(SO6)6,2.7409
Pr3Si2S8Cl,2.7409000000000003
TiNb(PO4)3,2.7411000000000003
NiH48C18S6(N7O3)2,2.7413
Na4TiP2O9,2.7413
ZnCdB2O5,2.7413000000000003
H8C2SeS2(N2Cl)2,2.7415
Li6Gd(BO3)3,2.7416
Mn2H2SO6,2.7417
Rb2NaGdCl6,2.7418
LiCoPO4,2.7419999999999995
Cs4GeO4,2.742
Na3Mg2Ge2P3(SO8)3,2.7421
Na2PtF6,2.7424
Li2H32Pt(C6O)2,2.7425
Dy2Zr2O7,2.7425999999999995
Sr4Nb2O9,2.7425999999999995
Na8Y2Zn2Si3(SO8)3,2.7427
TaZnP(SO6)2,2.7428
CsGd(CO3)2,2.7429
Nd7V2BO17,2.7429
Na5Li3Ti5O14,2.7429999999999994
Li3MnFe2(BO3)3,2.7431
AsCS2N2OF5,2.7431
Li2InFe(P2O7)2,2.7432
Li3Bi2(PO4)3,2.7433
LaTiSbO6,2.7433000000000005
NaGa(H2N)4,2.7434
CuH12C3S3IN6,2.7435
BiH24C6(I2N)3,2.7436000000000003
Nd3SbO7,2.7436000000000003
Ba2H14Cl4O15,2.7437
MgTi2O5,2.7437000000000005
Li3Fe2OF5,2.7438
LiNb(BO3)2,2.7438
MnC4ClO4,2.744
CsLaH4(SO4)2,2.744
Mo3NO9,2.744
SmTl(WO4)2,2.744
AsN(OF3)2,2.7442
Na8Ti2In2Si5SO24,2.7442
KCoH6(N3O4)2,2.7443
TaHO3,2.7443
Ca3Co(SeO3)4,2.7444
CaTi2O5,2.7445
RbLiMg14O15,2.7446
SrMo4H4O15,2.7446
CoH9C4NO6,2.7446
AsXeF7,2.7448
RbTlF4,2.7449
NaTaAl3P3(SO8)3,2.7449000000000003
Na9LiFe10(SiO3)20,2.7449000000000003
LiNiBO3,2.745
CsH(CO2)2,2.7451
Li3SbS3,2.7452
MgMn2(PO4)2,2.7452
CaZrSi6H2O15,2.7453
Cs3ScO3,2.7453
Ba(BS2)2,2.7453000000000003
LaH2SNO7,2.7453000000000003
Li3B2SbO6,2.7455
HoNO4,2.7456
VZn2IO7,2.7456000000000005
PrPaO4,2.7457
SiP2H18(C3Br2)2,2.746
LiFeP2O7,2.746
ZnBi6P2O15,2.7461
Na2V2NiH4(OF)6,2.7461
Zr3ZnSiS5O24,2.7461
La2Th8O19,2.7461
Li2VF4,2.7462
LiNb3O8,2.7464
CsLiCrO4,2.7465
ZnH2(SeO4)2,2.7465
VSiP2O9,2.7465
Na3Ta4Zn2(PO4)9,2.7465
BiAsO4,2.7466
La4S4Cl2O,2.7466
MgSbAsO5,2.7467
K2ZnGeO4,2.7469
Ca(GaS2)2,2.7471
LiCrO2,2.7471000000000005
K2Ge8O17,2.7472
HoBiO3,2.7472
Cs2Ca(Cl2O)2,2.7473
Os6C19O20,2.7473
NaMg6CrO8,2.7473
Tb2Mg(NiO3)2,2.7473
LiMn4(PO4)3,2.7473000000000005
LaMoClO4,2.7474000000000003
NaMnF3,2.7474000000000003
Na2TaZn(PO4)3,2.7475
NaLi3Fe4(SiO3)8,2.7475000000000005
Cs3ZnH5,2.7476
Li3CuS2,2.7477
PH10S3N2O,2.7477
Li3VPCO7,2.7478
PrSBr,2.7479
TbMoClO4,2.748
K2Mo2H4C4O15,2.748
VH10SNO9,2.7481
HgN6,2.7481
Cr2H8N2O7,2.7482
SiO2,2.7482
Sr2FeWO6,2.7482
KSmHf2O6,2.7483000000000004
HoVO4,2.7484
Na10Nb7Al(SiO4)12,2.7484
Li3Fe3OF7,2.7484
TiZnSnO4,2.7485
CaMo2P2O9,2.7485000000000004
KSi4H27(C3O)3,2.7486
CaMnZnAs2H3O10,2.7486
YNO4,2.7487000000000004
LiVF6,2.7488
Ba5Gd8Zn4O21,2.7488
FePO4,2.7489
KTa2PO8,2.7489
TlCdBr3,2.7489
LiCo2P3O10,2.7489000000000003
LiAl(PS3)2,2.749
VF4,2.7491
Li7Nb8O24,2.7491
Li4Mn3F10,2.7494
Li7Mn(OF)3,2.7495
LiSbO3,2.7496
Li4Zn(PS4)2,2.7498000000000005
LiFe2F5,2.7499
Na3Co6Ag(P2O7)4,2.75
Mg3Te4O11,2.7501
KFeF4,2.7501
Mg4FeO5,2.7501
Sr3GeO5,2.7501
Y2Sn2O7,2.7501000000000007
TeC4(ClF3)2,2.7502
Mg14SiCO16,2.7504
Li14Nd5Si11N19O7F2,2.7504
Gd4P6H16O23,2.7504
NaTaTiSi(PO6)2,2.7504
Na4Cd2Si3O10,2.7505
TeW2S3,2.8234
Sr3W2O9,2.8235
Sn2P2O7,2.8235
CaNiSnP2O9,2.823500000000001
Na9Ca2Ta4Si6(PO12)3,2.8236
K3Ho(SiO3)3,2.8237
PH9AuC3S3Cl,2.8237
Gd2B4O9,2.8237
Tl2TeMo2(PO7)2,2.8238000000000003
Ga2Fe(PO4)3,2.8240000000000003
KSbWO6,2.8241000000000005
AgH2ClO5,2.8242
AsH4NF6,2.8242000000000003
HfNF4,2.8242000000000003
BaCaGdNbO6,2.8243
Li2CoP2O7,2.8245
B3Pb6BrO10,2.8245000000000005
Co3C10O9,2.8247
RbAlH4,2.8248
Zr(MoO4)2,2.825
VF5,2.8251
Na3HfTiSi2PO12,2.8252
Zr2Ga2SiS5O24,2.8252
SrZr2SnO6,2.8253
MgCrP2O7,2.8254
LiCr(SiO3)2,2.8254999999999995
Zr2TiSnO8,2.8254999999999995
VPH7N2O5,2.8255
K3LiTi7O16,2.8256
BaNaNdWO6,2.8256999999999994
Tb2Zr8O19,2.8256999999999994
KSrNdWO6,2.8258
Er2TiO5,2.8258
HfTiO4,2.8259
Ba2Ta6Te2O21,2.8259000000000003
CsZn4(BO3)3,2.826
BaLaBr5,2.826
Sr6Mg7H26,2.8261000000000003
K15Mo7N19,2.8262
Li3MnFe2(BO3)3,2.8263
Mg14CuCO16,2.8264000000000005
Na2MnCSO7,2.8265
NO2,2.8265
MgTi3O7,2.8266
Cs2Co(NO3)4,2.8266
Lu2WO6,2.8266000000000004
LiCoBO3,2.8267
LaAgO2,2.8267
K2VOF4,2.8268
KCaNdWO6,2.8268000000000004
Cs2VH2(OF2)2,2.8269
SrMg30MnO32,2.827
SrCaMg14O16,2.827
LiIn(MoO4)2,2.827
K2ZnS2,2.827
Na3GaSn3(PO4)6,2.8272
TiH12C2(NF)6,2.8272000000000004
Rb2SiS3,2.8274
GaHgCl4,2.8274
Li2CrP2O7,2.8275
NaTi2BiO6,2.8275
Li2VP2O7,2.8277
KNaH2,2.8277
Li2FeBO4,2.8278
Ag2Ge(S2O7)3,2.828
TiZnO3,2.828
Li2Mn2(SiO3)3,2.8280000000000003
KBe(H2N)3,2.8280000000000003
CrPC5Cl3O5,2.8280000000000003
Sr(BS2)2,2.8280000000000003
YAlN2,2.8281
Na14Y6Ta2Si9(SO16)3,2.8281
VP2H13CN3O11,2.8281
Na6La5Ta3(PO4)12,2.8282
KSmTiSnO6,2.8282000000000003
Na7Hf2Ti2Si5PO24,2.8283
SnCSNF,2.8283000000000005
AgH12C6N5O3,2.8284
SrCaTi2(GeO5)2,2.8285
LiMg30FeO32,2.8286
ZnSnP2O7,2.8288
LiCoPO4,2.8289
CsRbAu2,2.829
Ba3SrNb2O9,2.8291000000000004
Na2HfSiGe(PO6)2,2.8291000000000004
Na6TaAl3Si4(SO12)2,2.8292
Li2CoPO4F,2.8292
AgH2C7O3F5,2.8293
Ba4Sb2O9,2.8294
Li3NiOF3,2.8294999999999995
Li2CoSiO4,2.8296
Li4Ti7O16,2.8296
NaSiSbO5,2.8297000000000003
Zr2Te4Br2O11,2.8298
Na6Ta6In2Si9(SO16)3,2.8298999999999994
Na2Ca2Hf6Si3(S3O16)3,2.8299
CsTi2(OF)3,2.8299
DyCrGeO5,2.83
Cd3Co2H44Br12(N3O)4,2.83
NaLa2Sc2PS5O24,2.8302
Gd2W2O9,2.8302
Na3Si3N5,2.8302000000000005
Li6MnFe5(BO3)6,2.8303000000000003
B3Pb6ClO10,2.8303000000000003
HoSeF,2.8304
AlBiSCl4,2.8305
Na3SnPCO7,2.8306000000000004
La4Mo7O27,2.8306000000000004
Rb8(GaH3)5,2.8307
NaCo3P3(HO6)2,2.8308
VH10SO10,2.8309
Cs3TaO8,2.8311
VH17C4S4(O5F3)4,2.8314
Tb2SeOF2,2.8314
Ca(AlH4)2,2.8314000000000004
Na6TaIn3Si4(SO12)2,2.8314000000000004
KSrPrWO6,2.8314000000000004
LiCoPO4,2.8316
Ti2ZnO5,2.8317
Hf3Tl10Mo12PbO48,2.8317
RbBS2,2.8318
Cs3BiI6,2.8318000000000003
CaMn(SiO3)2,2.8319
Mg14CrSnO16,2.8321
KNdTiSnO6,2.8321000000000005
CaBe3Co2(SiO4)3,2.8321000000000005
CdH5Br3N2,2.8322
LiCrP2O7,2.8322
KCaSmWO6,2.8322000000000003
Zn6B3HO11,2.8322000000000003
Na3Ga2Ge2P5SO24,2.8323
Sm4(OF2)3,2.8324000000000003
Mg3ZnO4,2.8325
AgSbH2C2(NF3)2,2.8326
La3SbO7,2.832700000000001
Na6Sc2Ta6Si9(SO16)3,2.8328
H4C2NO2,2.8328
Pb3Se2(BrO3)2,2.8328999999999995
CaFeF5,2.833
LiCoF3,2.833
Na14Ca5Zr3Si6(SO8)6,2.833
Mn2P2O7,2.833
Na30Ta20Zn4Si33(SO48)3,2.833
Na10Sc4In4Si5S7O48,2.8331
Li3VPCO7,2.8331
Na9Ta8Zn4Si3(P5O24)3,2.8332
Rb2YInBr6,2.8332
YNO4,2.8333
La8ScTi6NbO28,2.8333000000000004
Na3CrBPO7,2.8333000000000004
VF5,2.8334
PH3W(CO)5,2.8337
NaNdHf2O6,2.8337
Ho2TiO5,2.8337
Li2VOF5,2.8337000000000003
Li2CdSiO4,2.8338
AlPS4,2.8338
Li3VPCO7,2.8339
Sc2Ti2O7,2.834
ReSbH4O7,2.834
RbAl6H20N5F24,2.8341
SrMgCr(PO4)2,2.8341000000000003
TaTi(PO4)3,2.8341000000000003
Li3CoPCO7,2.8344
Cs2Ti(WO4)3,2.8344
Sr2GdNbO6,2.8344000000000005
GdH6C2ClO7,2.8345
CoSb2S2(OF3)4,2.8345
BaPb2IF5,2.8346000000000005
Cs2NaGaCl6,2.8347
CsDyO2,2.835
Li4Co(PO4)2,2.8352
Ba3YI9,2.8353
KSrGdWO6,2.8355
VOF3,2.8355
Li6MnFe5(BO3)6,2.8355999999999995
LiCoPO4,2.8356000000000003
LaVH2I4O15,2.8357
MgGe4(BiO6)2,2.8358
Cs3V4Te2ClO14,2.8359
K2ScAgBr6,2.8359
MgCrP2O7,2.836
AlV(TeO4)2,2.8361
SmMoClO4,2.8361
SrLiEuTeO6,2.8365
HoTe2ClO5,2.8368
SO2,2.8368
LiZnSi2H47C17N4,2.8368
RbIO3,2.8369
P2W2O9,2.8369
Li2La2Ti3O10,2.837
AlPS4,2.837
BNCl2,2.8370999999999995
BeCr2O4,2.8371000000000004
LiV(PO3)3,2.8372
Ca2Al2Sn2O9,2.8373
NaCaSmWO6,2.8373
LiCaMgSiN3,2.8374
K2Co3P4(HO4)4,2.8374
Na10Zr4Nb4Si11SO48,2.8375
Na6Ca4Ta2P6(SO12)3,2.8378
VH8N2OF4,2.8379000000000003
Li6MnFe5(BO3)6,2.8379000000000003
Sr4Al6TeO12,2.838
Na6Si5Ge4SO24,2.838
Fe2Pb3F12,2.838
Li2Ti6O13,2.8381
K2RbSbBr6,2.8383000000000003
OsC4(ClO2)2,2.8383000000000003
Y2Si4CN6,2.8384
Sr2NbAlO6,2.8384000000000005
ScBiO3,2.8385
Na9Mg4Ta2(PO4)9,2.8385
LiMnPO4,2.8385
VF5,2.8386
Nd3Pb3I13O40,2.8386
BaPrDySnO6,2.8386000000000005
MgBi3P3O13,2.8387
Ba3Nb2CdO9,2.8387
SbHC2O5,2.8387
CsHg5Cl11,2.8387
BaSr7V8(Si2O7)8,2.8387999999999995
BaYBr5,2.8388
Li4Mn7(PO4)6,2.8388
LiSn10(PO4)7,2.8388000000000004
SrLi2Ti6O14,2.8389000000000006
Pr20AlSi19N33Cl2O19,2.8389999999999995
H2Pb3O4,2.8391999999999995
Na3PS3O,2.8392
BaCaNdNbO6,2.8393
VPbSeO5F,2.8394000000000004
Na7Ti2Si5Sn2PO24,2.8395
BaNaSmWO6,2.8395
Li6V2C4SO16,2.8395
MgTa2O6,2.8397
K2Th(MoO4)3,2.84
Li2CoPHO5,2.84
Li7VN4,2.84
Li12Co3NiP4(CO7)4,2.84
Na15Ca7Ta5(PO4)18,2.84
Li2Cr3P4(HO4)4,2.8400000000000003
Na2NiO2,2.8401
Rb6Ge2O7,2.8402000000000003
Li3VPCO7,2.8403
H4C6O,2.8404
GaRe2(CO)9,2.8405
TlH(CO2)2,2.8406
MgTi2O5,2.8406
FeH18(NO6)3,2.8406
La7V2BO17,2.8406
LiCoPO4,2.8406
V2Pb3O8,2.8407000000000004
Na4GaSi2GePO12,2.8409
HoBr3,2.8409
Gd3B2(O2F)3,2.8409000000000004
NaTl3(SO3)2,2.8409000000000004
Cs2RbSbBr6,2.841
LiMnPO4,2.8411
Rb2LiCoF6,2.8411
Mg3Ti2O7,2.8412
NaNbSi2GeSO12,2.8414
KVH4O7,2.8415
LiP5WO15,2.8415
NaCa9Ti9Nb(SiO5)10,2.8416
BaNi2(AsO4)2,2.8416
Rb3SbBr6,2.842
Li3MnFe2(BO3)3,2.8421
CsFeSiO4,2.8421000000000003
SnH8C2I3N,2.8421000000000003
Mg14NbBiO16,2.8421000000000003
Bi2SeO5,2.8422
La2Ti2O7,2.8424
PrSBr,2.8424
DyHoO3,2.8424
Na3TiSi2GePO12,2.8424
CdFe2Sb2(PO4)6,2.8426
ZnCoTe3O8,2.8426
Na3BiO3,2.8428000000000004
Gd3VGeO9,2.8429
Ni5Se4(BrO6)2,2.843
Na4LiNb5O15,2.8431
NaLi2V3O9,2.8431
Ca10Ta3Ti4Al3(SiO5)10,2.8431999999999995
KCaYWO6,2.8433
MnSeO3,2.8433
Cs3V2O2F7,2.8433
K2LiGdCl6,2.8434
Ba8Zr3(SbO6)4,2.8434000000000004
Fe(PO3)3,2.8437
Ho2Zr2O7,2.8437999999999994
Nd2O5,2.8438000000000003
Fe4P2O9,2.8438000000000003
Na10Y6Ta2Si7S5O48,2.8439
K2SnCl6,2.844
Y4TiSn3O14,2.8441
Na9Mg10Ta2P3(S5O24)3,2.8441
Ba3MgTaNbO9,2.8443
K3WF6,2.8446
Li2CoP2O7,2.8447000000000005
Li3FeOF3,2.8448
TiZnSnO4,2.8448
Ba2V3InO11,2.8449
KLaNiWO6,2.8449
InAs(H2O3)2,2.8449
Zr3Pb(O2F3)2,2.845
CoH12CN5O6,2.845
Li6MnFe5(BO3)6,2.8451999999999997
Na3CoPCO7,2.8453
La2Ti2O7,2.8453
Ni4P2O9,2.8454
LiSb3(P3O10)2,2.8455
Li3VP2HO8,2.8456
KCaTbWO6,2.8457
Ca(AlSe2)2,2.8458
Hg2As5H6O2F31,2.8459000000000003
NaLiV2O6,2.846
CsYO2,2.8461
As2PbO4,2.8462
LiFeF4,2.8462
Ba10MgAs6(ClO12)2,2.8463
YScO3,2.8464000000000005
LiMn(PO3)4,2.8465
Li2Mn2P2O7F2,2.8466
Li3InBr6,2.8469
Na12Mg5Ta(PO4)9,2.8469
Cs2TeO4,2.8469
LiMnBO3,2.8469
KCaPrWO6,2.8469000000000007
K4BaTa6(Si2O13)2,2.8469999999999995
KSrGdWO6,2.8469999999999995
MgFe2W2(ClO4)2,2.847
MgTa4(AsO5)4,2.8471
Li2V(CO3)2,2.8471
Zn3(BO3)2,2.8472
VZn2P2O9,2.8472
CsCrO3F,2.8472
Ta3InO9,2.8473
Li5ReN4,2.8473
LiFePH2O5,2.8476
Na21Ta2Zn10P15(SO24)3,2.8476
Na2BeO2,2.8476
Rb2CdI4,2.8477
BaNaTbWO6,2.8478000000000003
Ba2LuNbO6,2.8479
Li6MnFe5(BO3)6,2.8479
La3NbO7,2.8479
K2Mg2O3,2.8479
Rb2NdAgF6,2.8480000000000003
AgClO4,2.8481
Na10Zr4Si9Sn4(SO16)3,2.8482000000000003
BiH14C4S8N5O,2.8482000000000003
GdHCO4,2.8483
PrNb3O9,2.8485
Na3Ca2Ta10Si3(P5O24)3,2.8485
SiI3,2.8485
Li3SbCl6,2.8486
BaCaSmNbO6,2.8486
MgAl2O4,2.8486
KGaO2,2.8487
K2AlTlBr6,2.8488
Gd4Mo7O27,2.8488
Ba3LaI9,2.8489999999999998
H6PbC3S2IN,2.849
KSrSmWO6,2.849
Na14Ca4Zr4Si7S5O48,2.8492
H7C2SIN4,2.8495
Li3La3(MoO6)2,2.8495
Lu2MgW2(ClO4)2,2.8495
SrO2,2.8495000000000004
TaSCl7O,2.8496
LiSn2P4H3O16,2.8496999999999995
K2CeAgCl6,2.8498
BaCa2Er10O18,2.8498
Nd3S2Br5,2.85
RbBrO4,2.85
Ba2NdNbO6,2.85
TiPHO5,2.85
Cs2KSbBr6,2.8501000000000003
KCaNdWO6,2.8502
Ba2TmNbO6,2.8502
Li8Mn3Fe5(BO3)8,2.8502
Ba2SmNbO6,2.8503
Y2Th8O19,2.8504
AuC2,2.8504
Li2FeF5,2.8504
KCaDyWO6,2.8505000000000003
Si4SnO10,2.8506
Na2Cr(HO)8,2.8506
B4H5,2.8507
Na9Ta4Zn2Si6(PO12)3,2.8507
Pr2Ti2O7,2.8508
MoSF4,2.8508
P2W2O11,2.8508
BaCN2,2.8508
Cd5H18C8N20(Cl2O)2,2.8508
Mn2Fe5Si8(HO12)2,2.8509
H3CBrClF,2.851
Pb2OF2,2.8511
UTe6(OF5)6,2.8511
Na8Mg3ZrSi3(SO8)3,2.8511
La4Ti9O24,2.8512000000000004
La2Mo2O9,2.8513
VH17C4S4(O5F3)4,2.8513
Na14Ca8Si3(S3O16)3,2.8513
Ba2DyNbO6,2.8514
CsBi(MoO4)2,2.8514
Ba2YNbO6,2.8514
ZrNb(PO4)3,2.8515
CaGd4O7,2.8515
SrVSi2O7,2.8515
Na12Ca2Ta4(SiO4)9,2.8515999999999995
Ba2HoNbO6,2.8516
Li4Fe2Si3O10,2.8517
FeF3,2.8517
Li2FeSiO4,2.852
Li2VF5,2.8520000000000003
Li2MnSiO4,2.8521
VCd2PO7,2.8522000000000003
K3H3PtS2Br2O7,2.8523
Ba2TbNbO6,2.8523000000000005
LiCoPO4,2.8524000000000003
NaGdH2S2O9,2.8525
Mg30MnNiO32,2.8526
CoH8(IO5)2,2.8527
CdH9C4(N2O3)3,2.8528
Li4P2O7,2.8528
Er2TiO5,2.8529
K3GdCl6,2.853
BaCaTbNbO6,2.853
CoH12(BrO3)2,2.853
Ba2W2F11,2.8531
Na7ZnGa3Si3(SO8)3,2.8533
KLiCrO4,2.8534
CsBi2Br7,2.8535
Cs3SbBr6,2.8535
CaFeF4,2.8537
LiGaBr3,2.8538
RbMg30WO32,2.8539000000000003
CaCoP2O7,2.8539000000000003
CaTi3O7,2.854
Ba2ErNbO6,2.8542
SrLaBr5,2.8542
Mg3TeO6,2.8543
Na2Gd2B2O7,2.8545
BaCaYNbO6,2.8545
Rb2PS3,2.8545
NaBi(MoO4)2,2.8545000000000007
SrCaCo(PO4)2,2.8546
Na14Ca4Mg4Si3(S3O16)3,2.8546
Cs2ScAgBr6,2.8546
Na9Ca4Ta8Si3(P5O24)3,2.8546
Ta2InBiO8,2.8546000000000005
SrVSi2O7,2.8547
H(CO)2,2.8549
NaSrPrWO6,2.8551
Li2CoCSO7,2.8551
NaCaYWO6,2.8551
BaNaYWO6,2.8552
KN3O4,2.8552
Y2Ti2O7,2.8553
NbAgF6,2.8553
KNO3,2.8553
LiCrP2O7,2.8553
VH3CO5,2.8555
FeP3(HO)6,2.8556
Na6Ca4Ta2Si3(SO6)6,2.8556
Na5Al3Ge(PO4)6,2.8557999999999995
TeH3CCl3,2.8558
Ti3H2O7,2.8558
Li2Mn3F8,2.8559
Ba2MgH6,2.856
BaCaDyNbO6,2.856
NaMg6WO8,2.8561
SiI4,2.8561
Li2FeSn(PO4)2,2.8562
TbBr3,2.8564
TaAlSi(SO6)2,2.8565
NaCaTbWO6,2.8566
SeCl4,2.8566
Mo(CO)6,2.8566000000000003
Na3Nb2Si3Sn2(PO8)3,2.8566000000000003
Sr2TmNbO6,2.8569999999999998
NaH3C4O5,2.8572
Mo6H24C8N2O19,2.8572
MnH8(NF3)2,2.8572
Na7Mg3Ta(PO4)6,2.8572
CdH4C4(S2N3)2,2.8573
PbWO4,2.8574
Li2Fe5(Si2O7)2,2.8575000000000004
Ba2PrNbO6,2.8578
NaNO3,2.8579
KHfSnSbO6,2.858
KSrNdWO6,2.858
Ag2B8O13,2.858
Na6Nb8Si11SO48,2.858
LiMnPO4,2.8580000000000005
Ca2Mn7Si10H12O35,2.8581
NaSrNdWO6,2.8581000000000003
BPBr2NCl3,2.8582
NaGaO2,2.8582
Ca4ZrTi3(GeO5)4,2.8582
VF5,2.8583000000000003
Zr4Ti(PbO3)5,2.8584000000000005
Sm2MgMo2(I4O15)2,2.8585
Tl3BiCl6,2.8585000000000003
SnH12C2(NCl)6,2.8585000000000003
Li6MnFe5(BO3)6,2.8588
Ti3H2O7,2.8588000000000005
Ba3Ta6(Si2O13)2,2.8588999999999998
Gd3InO6,2.8589
Ba3Cd(GeO4)2,2.8589
LiSi2(BiO3)3,2.8591
Na10Hf2Mg6Si3(S3O16)3,2.8591
LaGd3(BrO)4,2.8592
Hf4Ti(PbO3)5,2.8592000000000004
ZrP2NCl11,2.8593
MgNiSnP2O9,2.8594
Li2Co(PO3)4,2.8595
AsClOF8,2.8596
LiMnF4,2.8601
ReC3O4F,2.8601
KSrPrWO6,2.8602
Ti2Zn2SnO7,2.8603
Na6ScNb3(SiO4)6,2.8603999999999994
Na2CoP4(H2O3)6,2.8605
Ba(SbO3)2,2.8606
CsCrF4,2.8606
K2Se(SO3)2,2.8607
NaCaDyWO6,2.8610999999999995
Dy2SO2,2.8611
Na4Cd7(N5O6)6,2.8612
TiTl5F9,2.8612
RbBi2Br7,2.8615
Na2ZrFeSi2O8F,2.8616
Mn3(PO4)2,2.8617
SnP2(Cl5O)2,2.8617
ReBiO5,2.8617
ThV2PbO8,2.8617000000000004
CoPH6NO5,2.8619
Ca10Ti8NbAl(SiO5)10,2.8619
LiMg6SbO8,2.861900000000001
Na3AlSiGe(PO6)2,2.862
Rb2Ge4O9,2.862
NiH6C2(NO2)2,2.8621
SrCa2Sc6O12,2.8621000000000003
GdF3,2.8622
HgH10N2Cl4O,2.8622
Li2FeSiO4,2.8624
Ca5TaTi3Al(SiO5)5,2.8624
XeF4,2.8624
CsH24Rh(SO10)2,2.8625
CdSO4,2.8625
Ta2H4O7,2.8627
MnZnF4,2.8628
TiZn(BiO3)2,2.8629
YCrGeO5,2.863
LaMgTaFeO6,2.8630000000000004
W(SO4)2,2.8632
KGd(PO3)4,2.8632
LiVPO4,2.8633
CoNi2(PO4)2,2.8633
Li4Ti9O20,2.8633
KTaCl6,2.8634
NaPrHf2O6,2.8635
Ba2LaMgSbO6,2.8635
BaNaDyWO6,2.8635
K3V3(AsO7)2,2.8636
MgPb2WO6,2.8636
NdAlO3,2.863600000000001
K2CdN12,2.8637
Zn3CrH80S8(NO7)8,2.8637
Ca6TiAl5Si6(O5F)5,2.8637999999999995
LiNiPO4,2.8639
LiNbWO6,2.8639
LiCr(PO3)4,2.864
SrCaSmNbO6,2.8641
LiMnPO4,2.8641
KMoIO6,2.8641
CsLaMg30O32,2.8641000000000005
Sr2Mg3H10,2.8642000000000003
SrBiIO2,2.8643
LiAlSi2H2O7,2.8643
Na15Ta8Zn4Si9(PO8)9,2.8643
CaC2,2.8643
K4Zr3Mn(PO4)6,2.8643
Na5HfNb3(SiO4)6,2.8645
SbN9,2.8646
Ca2Nb2O7,2.8646000000000003
LiZnIO4,2.8646000000000003
Li2Mn3(Si3O8)2,2.8647
LiSi6Bi9O26,2.8648
Bi2Te2WO10,2.8648
Cr(PO3)3,2.8648
SbS8Cl3,2.8648
K2LiInCl6,2.865
LiVPO4,2.865
SrCaTbNbO6,2.865
VInO4,2.8651
Ge(SeO3)2,2.8651
Na4HfTi(SiO4)3,2.8654
Li3CrSiCO7,2.8655