formula,band_gap (MP)
Li3Si2BiO7,3.2388000000000003
Gd3BWO9,3.2389
Zn2PHO5,3.239
K2FeH8(SO6)2,3.2391
BaSrMgWO6,3.2391
Na2TiGeO5,3.2391000000000005
Ca2BiAsO6,3.2393
B3H3SeO9,3.2394
Ho2Te4O11,3.2395
VF5,3.2396
Li3Cr(Si2O5)3,3.2396000000000003
Li2Si2NiO6,3.2396000000000003
Mg3(AsO4)2,3.2396000000000003
Li3Y3(TeO6)2,3.2397
Ho2WO6,3.2397
BaCaGdSbO6,3.2399
Nd2Mo4O15,3.2399
Li2CrP3O10,3.2399
Na2Li5Al7Si29O72,3.24
ZnNiTe3O8,3.24
Sm2WO6,3.2401
Cs4(BS)9,3.2401
Li2Co(Si2O5)2,3.2401
RbGd(WO4)2,3.2402
Na5YTa3Si5PO24,3.2404
KNa7V8O24,3.2404
KCrH4(C2O5)2,3.2405
ZnAsHPbO5,3.2405000000000004
Ni(CO2)2,3.2406
Li3SiSnBO7,3.2406999999999995
Li2Si3Ni2O9,3.2408
MgWO4,3.2409000000000003
H12C4N2O9,3.2411
NaLaO2,3.2411000000000003
Cs2KNdI6,3.2412
Li3SiBiO5,3.2412
Na2SrP2H16(S3O4)2,3.2413
SiS2,3.2415
Li2FeF4,3.2415
ScTeO3F,3.2415000000000003
K3In(IO3)6,3.2415000000000003
Ca3Cr3(PO4)4,3.2416
NdH12(NO5)3,3.2416
Cd(IO3)2,3.2417
Dy2Te4O11,3.2417
Na9MgTa5(SiO4)9,3.2419
CoH8SO8,3.242
TaGe(PO4)3,3.2423
KGePCO7,3.2424
Na5Ni2P2(CO7)2,3.2425
Na4TiO4,3.2426
LiMnPO4,3.2427
Mo3H8C4SN2Cl6O7,3.2427
Ba4Ga2O7,3.2427
ZnH12N4Cl4O3,3.2428
In2(SO4)3,3.2428000000000003
Sr(Si3N4)2,3.243099999999999
Na5In2Ga2P5SO24,3.2431
RbH2(IO3)3,3.2431
Sn(WO4)2,3.2432
Li2Si2NiO6,3.2433
Cs2RbAlBr6,3.2433
Sr2Re4H16C3(N2O7)3,3.2433000000000005
S(NF3)2,3.2434
Ca2Si3Pb3O11,3.2434
K3SnPCO7,3.2434000000000003
Tm3Ga5O12,3.2434000000000003
Sr(C4N3)2,3.2435
KAg(CN)2,3.2435
Tl3CrF6,3.2437000000000005
AuC2N3,3.244
SrLi2(SiN2)2,3.244
MnSi6Pb8O21,3.2441000000000004
SmTaO4,3.2442
Na5ZrIn3(PO4)6,3.2444
Na2TaAlSi(PO6)2,3.2444
Ba3SrNb2O9,3.2445
NaCaNbSnO6,3.2445000000000004
Mg(NO3)2,3.2447
Ba2Li3Ho3(WO4)8,3.2447
Li4Mn3F10,3.2448
Nd2Zr3(MoO4)9,3.2448
Pb2SeN2O9,3.245
LiFe2F5,3.2451
Rb3NaTiO4,3.2452
KAlSi3Ni3(HO6)2,3.2453
MgSbF5,3.2453
RbNa2CoF6,3.2454
AgPH6(NF3)2,3.2454
CdH3NO5,3.2456
RbNbS2O9,3.2458
Cs2CrO4,3.2458
TlCrNiF6,3.2459
Na7In4SiP5O24,3.246
Tm2MgTiO6,3.246
LiGaBr4,3.2461
LiB(HO2)2,3.2461
Tl2HPtC5N5O,3.2463
Na4Sc3TaSi3(SO8)3,3.2464
LiNiPO4,3.2464000000000004
BaGa2(GeO4)2,3.2465
ZrFeF6,3.2465
CaZr4(PbO4)3,3.2467
Sr3LaV3O12,3.2467000000000006
K2RbScBr6,3.2468
Be3Fe4Si3TeO12,3.246900000000001
Na6Ni2C4SO16,3.247
Sr3LaTa3O12,3.2471
CaTb4Al2(FeO6)2,3.2471000000000005
Sb6S2O15,3.2471999999999994
Na5Al(HO)8,3.2472
Er(NO3)3,3.2472
OsO4,3.2472000000000003
BaSrCaWO6,3.2474
KGd(WO4)2,3.2475
LiNbGeO5,3.2475
ZnH6,3.2475
CsNd(MoO4)2,3.2476
ZnH14C2N10(ClO7)2,3.2476000000000003
LiMnPO4,3.2476000000000003
C2SeN2,3.2477
LiFeF4,3.2477
Sr2As2O7,3.2477
NaTa4Si3(PO8)3,3.2478
K2ScAgCl6,3.248
Na3Ta2Ga2SiP5O24,3.2481
Ba3NdV3O12,3.2482
Li2Si2Ni2O7,3.2482
CsNa2BO3,3.2483
Na5HfIn3(PO4)6,3.2483000000000004
CoBP2HPbO9,3.2483000000000004
CaVBiO5,3.2484
KLu(WO4)2,3.2486
KGd(PO3)4,3.2486
BaZn2Si2O7,3.2486
NdTa2O6F,3.2486
Mg10TiSn(BO5)4,3.2487
Na3H2SNO8,3.2489
SmGd3Al4O12,3.249000000000001
Na3In2(PO4)3,3.2491000000000003
LiNi3OF5,3.2492
H7C2SBrN4,3.2492
Fe2B2O5,3.2492
CrH8C4NO10,3.2492
Rb2AlAgF6,3.2492
SmH6C2SNO9,3.2493
Li2CoP2O7,3.2494
BN,3.2495000000000003
NiSnH12(OF)6,3.2497
NaVF6,3.2498
Tb2Te4O11,3.2498
Na3SiBiCO7,3.2499
AgH20S6N5O9,3.2499
Sm2(MoO4)3,3.2499
Sr4Nb2O9,3.25
CaMg2TiAl2SiO10,3.2501999999999995
Ba2SrWO6,3.2504
Si2B2H37C12N5,3.2505
CsNaMo3O10,3.2507
Na8Al6Si6CO27,3.2507
DyNbO4,3.2509
NaScTa(PO4)3,3.2509
KSmHfSnO6,3.2509
Ba2V2O7,3.2509
CaTlI3,3.2511
Nd2(MoO4)3,3.2512
Ca2HoF7,3.2513
Na4Mg2Sc2SiS5O24,3.2513000000000005
Na14Ca4La4Si5S7O48,3.2515
BaY2O4,3.2515
AsHPbO4,3.2515
LiSiBiO4,3.2515
H7C(NO)3,3.2517
Cs3AsO4,3.2518
LiMnF3,3.2519
Li2Si5Ni2O13,3.2519
Sr2As2O7,3.2519
ErTl(MoO4)2,3.252
P2Pb3O8,3.252
Na4YInSi(PO6)2,3.252
NdTl(WO4)2,3.2520000000000007
Li2Te2O5,3.2521000000000004
KMg30BiO32,3.2524
K2S2O5,3.2524
Ba3TiAl10O20,3.2524
LiLa(CN2)2,3.2525
Na14Y4Mg4Si5S7O48,3.2527
KRb2GdCl6,3.253
NaTa2SiGe2P5O24,3.2534
Na7La3TaSi3(PO8)3,3.2534
Cs2H4Pt,3.2534
Li2Fe3F8,3.2535
Li2P2WO8,3.2535
Pb(BrO3)2,3.2535000000000003
LiNi2P3O10,3.2537000000000003
Li4MnFe3(BO3)4,3.2538000000000005
Na6CaZr3Si4(SO12)2,3.2539
BaMg14CuO16,3.2540999999999998
Na3AsH14SO10,3.2541
SrCdB2O5,3.2543999999999995
SrBNO,3.2545
CoBC8(OF2)5,3.2547
CsC2I3N2,3.2547
Pb3I2(Cl2O3)2,3.2548
Na14La4Zn4Si5S7O48,3.2551
BaSr2I6,3.2551999999999994
LiFeF4,3.2552000000000003
Li2CrP2O7,3.2552000000000003
BiOF,3.2552000000000003
VH10C2S2(O2F)6,3.2553
KHgC3(NO)3,3.2554
Cr(PO3)3,3.2554000000000003
NiSO4,3.2555000000000005
Dy3S2Cl5,3.2556000000000003
KLaMoO5,3.2557000000000005
ZnCr(Si2O5)2,3.2562
KTb(MoO4)2,3.2564
Ba3Ho4O9,3.2565000000000004
K2Ti(Si2O5)3,3.2566
AlTl(SeO4)2,3.2568
LiSi3BiO8,3.2572
Cs2PrAgF6,3.2577
Na5In4P5SO24,3.2577000000000003
La9Lu11(GaO4)12,3.2578
Li12Nb14ZnO42,3.2580000000000005
Sr(AsO3)2,3.2581
MoH14C6N2(O2F)2,3.2581
Ba3B3Pb2BrO9,3.2581
ThTeWO7,3.2581999999999995
Ca2SiO4,3.2582
Cs2TeH6(ClO3)2,3.2584
ZnCoH22C5N10(Cl2O3)2,3.2584
LiIn(MoO4)2,3.2584
Li3VO3F2,3.2584
As3Pb2BrO6,3.2587
KTaWO6,3.2588
Li3Bi(BO3)2,3.2589
Sb4PdC4(O2F11)2,3.2589
Ca3Tm2(GeO4)3,3.2590000000000003
Li3PF6,3.2591
Na2TiSi4H4O13,3.2593
Li4Si3(NiO5)2,3.2595
LiMnPO4,3.2595
Na5Al2SiSn2P5O24,3.2596
KLiEr2(MoO4)4,3.2596
Li2NiCSO7,3.2596
Zn(IO3)2,3.2597
Ca3TeO6,3.2598
BaPb2BrF5,3.2598
Li2CoP2O7,3.2598000000000003
LiPr(WO4)2,3.2598000000000003
CsGaAs3H5O12,3.2598000000000003
Ba4TiSi12(SnO12)3,3.2599
TePb3Cl4O3,3.2599
CaGd2O4,3.26
Ba3Al2(SiO4)3,3.2602
Na5La3ZrSi3(SO8)3,3.2602
Nd4(WO5)3,3.2602
Ba(Si3N4)2,3.2602
Li6Ni2C4SO16,3.2603
Ba3In2(HO)12,3.2603
KB(CO2)4,3.2605
Na2TeO3,3.2606
Li2MnPHO5,3.2607000000000004
GaHO2,3.2607000000000004
Li2MnSi3O8,3.2608
Th(MoO4)2,3.2608
CoH8(ClO2)2,3.2609
Rb2InGaF6,3.2609
ZnWO4,3.2609000000000004
DyNbO4,3.2613
LiMnPO4,3.2613000000000003
KSbN(OF)3,3.2613000000000003
Li3NiPCO7,3.2615
Na4PH5Se3O16,3.2615000000000003
Na6Ca4Hf4Si3(S3O16)3,3.2617
Ta4Zn2P6(SO12)3,3.2617
Li4MnFe3(BO3)4,3.2617
BaGa2(GeO4)2,3.2617
Li2CoP2O7,3.2618
NaLa2Zr2P3(SO8)3,3.2619
Na6Ta5ZnSi6(PO12)3,3.2619
NaY2Zr2P3(SO8)3,3.2619
InTe2O5F,3.262
LiSn4(PO4)3,3.2621
VF5,3.2623
Mg4FeO5,3.2624000000000004
CaMg30FeO32,3.2624999999999997
Na3CrH14(C3O8)2,3.2625
CdWO4,3.2627
CaMg3Si3O10,3.2627999999999995
SnF2,3.2629
NbOF3,3.2629
RbPbCl3,3.263
MgWF5,3.263
Na2Ti2Si2O9,3.2630000000000003
AsCS3N2F11,3.2632000000000003
KMoH8(NF3)2,3.2635
Li6WO6,3.2636
Na7Sc2Ta2Si5PO24,3.2636000000000003
Ge4PbO9,3.2637
Nb(BO2)5,3.2638
ZnSiO3,3.2638
Na5Ta3InSi5PO24,3.264
Sr2MgWO6,3.2641
Sn(C4N3)2,3.2641
SrCaI4,3.2641
Li3NiPCO7,3.2642
NaSmSe2O7,3.2644
PrSbMo2O9,3.2644
Mg2Si5N8,3.264499999999999
KNdH6C4O11,3.2645
Mg2TiO4,3.2645
Rb2CO3,3.2646
La2Si(IO2)2,3.2646
Ag2B8O13,3.2651
Na3AlH10C6O17,3.2651000000000003
Li6NiO4,3.2652
NaMg3(SiO3)4,3.2656
SrPH10S3O5,3.266
H7NO6,3.2664
LaV2BiO8,3.2664
LuIO,3.2664000000000004
Fe3B7IO13,3.2665
Na14Y4Zn4Si5S7O48,3.2665
CsXeF7,3.2665999999999995
Ca3W2O9,3.2671
BaCaI4,3.2671
ZnBr2,3.2673
Li2FeF4,3.2673
Na8La3TaSi4(PO12)2,3.2673
MnSb2F12,3.2674000000000003
Na3In(PO4)2,3.2677
Ba(CO2)2,3.2678
Na2MgGeO4,3.2678000000000003
K2ZnSi3O8,3.2679
Cs2CaAg2H4C6S6(N3O)2,3.2679
SrNdGa3O7,3.268
Mg(CO2)2,3.268
HNO,3.2681
HgC2O2F3,3.2681
Li2FeF4,3.2682
Gd2P4O13,3.2682
Na4Ta3AlSi4(PO12)2,3.2683
Ba2Br2O,3.2683
LiH2N,3.2683
CaSeO4,3.2683
CaLaGa3O7,3.2684
InGeCl3,3.2685
RbTcO4,3.2685
Li5WNO4,3.2687000000000004
YMg6SnO8,3.268700000000001
Rb2GeO3,3.2688
CoMo8H36C8(NO16)2,3.2691
Sr(IO3)2,3.2692
Ba2CaWO6,3.2693
MgH4(NO4)2,3.2694
Zn3TeP2Pb3O14,3.2694
KMnAs3F18,3.2695
LuNbO4,3.2695000000000003
Na3ZnInP2SO12,3.2695000000000003
Rb2Ga2Ge3O10,3.2697000000000003
Bi2(SeO3)3,3.2697000000000003
BaCa3Si10(N2O)6,3.2698
NaGePCO7,3.2699
Na3HfSi2SnPO12,3.27
BaCaI4,3.27
Rb3YI6,3.2701
Y2Te4O11,3.2702
Na10Al4Ga4Si5S7O48,3.2702
NaTaSiGe(PO6)2,3.2702
Na4Ta3GaSi4(PO12)2,3.2703000000000007
SeO2,3.2704
SnF2,3.2704
SrCr(Si2O5)2,3.2707
Na7La3MgSi3(SO8)3,3.2708000000000004
CoB4O7,3.2709
Li4MnFe3(BO3)4,3.2715
LiNiPO4,3.2716
LiFePH2O5,3.2717
Lu2TiO5,3.2719
BaCaI4,3.2719
SmGaGe2O7,3.272
BaCaI4,3.2722
Be3Fe4Si3TeO12,3.2723
Na3Al2Sn2P5SO24,3.2723999999999998
Cs2RbScBr6,3.2725
Li10Sn(PO6)2,3.2726
SrSmAlO4,3.2726
GdY(WO4)3,3.2727
Sb2AsAuXeF14,3.2728
CaBi2B2O7,3.2729
Rb2Li2GeO4,3.2731
Na4AlInSi2SO12,3.2732
MgSiO3,3.2732
LaVO4,3.2732
NaHCO3,3.2733
ZrMoWO8,3.2733
RbCaH3,3.2736
Co3SnC12ClO12,3.2736
NaTaSi2GeSO12,3.2737000000000003
Na3Nd(AsO4)2,3.2738
Mg5AlH21O17,2.9647
AgH8C2S2BrN4,2.9647
La2MgZrO6,2.964700000000001
Rb2AgCl3,2.9649
CsMgH3,2.9649
Li2Ni(PO3)4,2.9649999999999994
BiOF,2.9652000000000003
Mg2TaCrO6,2.9652000000000003
Cr(PO3)2,2.9653
C5F6,2.9654
Na7In2Si3Sn2(PO8)3,2.9654000000000003
Na3NbSi3SnO12,2.9655
Na6Sc2Ta2Si5SO24,2.9656
LiNd2Tl(MoO4)4,2.9659000000000004
Li4Mn3Fe(BO3)4,2.966
Li3Mn4(BO3)4,2.966
ErVO4,2.9661
Na2CaTa(PO4)3,2.9661
LiAs(XeF4)3,2.9661
Na6TaGa3Si4(SO12)2,2.9662999999999995
CaThI6,2.9664
Rb2Te(WO4)3,2.9664
CsRe3(O3F5)2,2.9664
Cs3HgCl5,2.9666
Nb2Zn3O8,2.966600000000001
Ba2CoC2(O3F)2,2.966600000000001
Er2TiO5,2.9668999999999994
Na8Ga2Si5Ge2SO24,2.9669000000000003
Li4Mn3Fe(BO3)4,2.9671
K2ZrCdH16(CO3)8,2.9671000000000003
Sr2YI7,2.9672
Sm2WO6,2.9672
Sr5Ta4O15,2.9673000000000003
BaCrO4,2.9675
Li4Y3CrO8,2.9675
GeOs2C8(ClO2)4,2.9678
Li3VOF6,2.9678
Ca2Zr5Ti2O16,2.9678
Ca5MnO6,2.9678
Na7Y3TaSi3(PO8)3,2.9678000000000004
Na3HfNb(SiO4)3,2.9679
Na3Ta2Nb2Si5PO24,2.968
Sn21H14(Cl4O5)4,2.9683
H4CS(NO)2,2.9683
DySbMo2O9,2.9684
VInO4,2.9684
Sr4Ga2O7,2.9684000000000004
Zr2Ti(PbO3)3,2.9685
Cs3Li2Fe(MoO4)4,2.9686
Na2Zn2(TeO3)3,2.9687
Mg14CdCuO16,2.9687
Li2Co(SiO3)2,2.9687999999999994
K4CO4,2.9688
Li8Bi2(MoO4)7,2.9688
BaGd2Sc2O7,2.9688000000000003
Cs2GeO3,2.9689
Ti(SiO3)2,2.9689999999999994
Mg2SiS4,2.9691
NaCa3Mg3Fe(SiO3)8,2.9691000000000005
Na4Ca3ZrSiS5O24,2.9692
CsTmSiS4,2.9693000000000005
Bi6As4PbO20,2.9694000000000003
Na6La4Si3(SO8)3,2.9695
BaCrO4,2.9695
Cr2P4Pb3O16,2.9696
LiFe(SiO3)2,2.9697
NaH6CSNO3,2.9697
Zn(HO)2,2.9697
TbTl(WO4)2,2.9699
Ca4Ti4Si3GeO20,2.97
Sb2BrF15,2.97
Li4Mn3Fe(BO3)4,2.97
Na3NbSi3SnO12,2.9701
Na5La2In2P5SO24,2.9702
SrMgCo(PO4)2,2.9702
K2LiYI6,2.9702
KVHO3,2.9702
CrH18C5(NO)4,2.9703
Na14Y4Ga4Si7S5O48,2.9703
Na2TiSiO5,2.9703
MgV2Pb(OF4)2,2.9704
NaYTi2(SiO5)2,2.9705
Mg6ZnNiO8,2.9705000000000004
K2Bi(IO3)5,2.970800000000001
ScV(TeO4)2,2.9711
Dy2Ge2O7,2.9711
LiB2SbO6,2.9711
BaSrLaNbO6,2.9712
Li4Mn3Fe(BO3)4,2.9713
MgAs2(XeF8)2,2.9713000000000003
LiTiPO5,2.9715000000000003
SrSiN2,2.9715000000000007
Zn4P6N12O,2.9716
LiBiB2O5,2.9716
YEr3V4O16,2.9716
Ba2LaNbO6,2.9716
Na5ZrGa3Si3(SO8)3,2.9718
ZnAg2C4(SN)4,2.9719
Ba6Mg7H26,2.9720000000000004
Li3Cr2(PO4)3,2.9721
Ba2MnAl2CoF14,2.9723
BaP2(HO3)2,2.9723
Li12CoNi3P4(CO7)4,2.9723000000000006
Hf2Ga2SiS5O24,2.9724000000000004
Ca3AlFe(SiO4)3,2.9725
Na4Hf3ZnSi3(SO8)3,2.9726
Na2ScTaSi2SO12,2.9727
Na2Lu2B2TeO10,2.9727
CsPaO3,2.9729999999999994
LiY(MoO4)2,2.9730000000000003
SrLiAl3N4,2.9731999999999994
LiCr(PO3)3,2.9732000000000003
CdHC2(NO)4,2.9733
Cs2TlAsF6,2.9734
K3GdH6(C2O5)3,2.9734000000000003
Na12Ca5Ta(PO4)9,2.9735
Mn3H6(SO6)2,2.9737
BaSrSmNbO6,2.9738
BaSrYNbO6,2.9738
Gd3YV4O16,2.9739
KPrMgWO6,2.9739
Li8Mn7Fe(BO3)8,2.974
Li4VAs2O9,2.9741
KGa(Te3O7)2,2.9741
CsReOF6,2.9741
Cs2LiNdI6,2.9743000000000004
Nd2Ti3(ClO4)2,2.9743000000000004
BaSrNdNbO6,2.9744
LiCr(PO3)3,2.9745000000000004
K2TeMo2(PO7)2,2.9747
MgVP2O7,2.9747000000000003
RbBi(MoO4)2,2.9748
Tm2Zr8O19,2.9749
Rb3In(IO3)6,2.9749000000000003
Ho2Ti2O7,2.9749000000000003
YH24C9(N3O4)3,2.975
Na9Mg2Ta4Si6(PO12)3,2.9750000000000005
VZnBiO5,2.9750999999999994
MgCrP2O7,2.9751
Na7Si5Sn4PO24,2.9752000000000005
W(CO)6,2.9753
Gd4BClO7,2.9755
Na5Li(Mo3O10)3,2.9755
Mn2Hg(CO)10,2.9755000000000003
TaBiO4,2.9755000000000003
Na10Ga8Si5S7O48,2.9755000000000003
Te4Mo(OF4)5,2.9757
LiMg14BiO16,2.9757000000000007
Ca4Ti3AlSi4O19F,2.9758
Na2Sc2Al2SiS5O24,2.9758
Cs2Hf(WO4)3,2.976
Li3Mn2Fe(BO3)3,2.9761
Li2VP2O7,2.9763
DyVO4,2.9764
Mg14CoNiO16,2.9765
KNO3,2.9765
Li3FePO5,2.9765
LiVSi3O8,2.9766000000000004
NiTe6O13,2.9767
Mo12PO46,2.9768
Sr3CaI8,2.9768
Na2Ta4Si5SO24,2.9768000000000003
LiNbNiO4,2.977
SrAs2(XeF6)3,2.9771
Mg(GaO2)2,2.9771
Cs2Zr(WO4)3,2.9771
Cd3H16C8(N10F)2,2.9772
Ca(GaO2)2,2.9772
Tb2SO2,2.9772000000000003
Li4Mn7(PO4)6,2.9773
LiFeSiO4,2.9773
KHg(PO3)3,2.9773
Ca5Ta4O15,2.9774
TaSi2PH18C6(NCl3)2,2.9774000000000003
Na3HfNb(SiO4)3,2.9774000000000003
Na9Mg8Ta4P9(SO8)9,2.9774000000000003
LiMgAl3(SeO4)6,2.9775
Na9Fe(MoO4)6,2.9776
H48PtW6C8(NO)24,2.9777
Li8Mn7Fe(BO3)8,2.9777000000000005
Na9Ta5Zn(SiO4)9,2.9777000000000005
Sr3Li3La5O12,2.9778
K2MnF6,2.9778
AlBiO3,2.977899999999999
RbV3Cd3O11,2.978
LiGd(MoO4)2,2.9784
Rb3NaV4H2O13,2.9785
PBr2N,2.9785
Na2CoPO4F,2.9785000000000004
Te4P2O13,2.9786
KMg6BiO8,2.9787
RbCrP2O7,2.9787
Ba2ZrO4,2.9788
LiCrPO4,2.9788999999999994
Na2MgZrSi(SO6)2,2.9789
Tm2Ti2O7,2.9789000000000003
Li8Mn7Fe(BO3)8,2.9791
Ca4Ti3Si4SnO20,2.9791
Ba2PrNbO6,2.9791000000000003
BaSrDyNbO6,2.9792
Mn3Fe3(PO4)4,2.9792
Li2MnF6,2.9792
BaZn2(AsO4)2,2.9793
Ge3Bi2O9,2.9794
Sr(BS2)2,2.9794
Na4Ta2Si5Ge2SO24,2.9794
NaHNO2,2.9794
V2Pb3O8,2.9795000000000003
CaAl2Si4(HO6)2,2.9796
KNbWO6,2.9797
Ba3WO6,2.9798
ReH(CO)4,2.9798
NaVO3,2.9798
VXe2F17,2.9799999999999995
CoNiP4(H8O5)4,2.9800000000000004
AlWO4,2.9803
CaMg6CuO8,2.9803
NaAl2Ga2PS5O24,2.9804
C2BrNO,2.9805
HoVO4,2.9805
Ca2LaSbO6,2.9805
FeSiO3,2.9807
K4MnMo4O15,2.9808
LiH,2.981
V2P2O7,2.9811
Li8Mn7Fe(BO3)8,2.9811
GdH22C7NCl2O9,2.9811
Li2CoP2O7,2.9811000000000005
Na3Ga2Sn2P5SO24,2.9813
KNO3,2.9813
Rb2Cr2O7,2.9814
Na6S2O9,2.9814
TiF6,2.9814000000000003
Ca3Ge3(BiO6)2,2.9815
RbNO3,2.9815
Ba2Nb2TeO10,2.9816000000000003
NdReMoO8,2.9818
LiMnPO4,2.982
CS2N,2.982
Li8Mn7Fe(BO3)8,2.9821000000000004
Lu2TeO6,2.9822
PrTaTiO6,2.9822
Na2AlFe(SiO3)4,2.9823
Sr2LaNbO6,2.9823000000000004
Li2Ti3O7,2.9823000000000004
Na2LaGaP2SO12,2.9824
Lu6H40N8O49,2.9824
Na6Sc5Ta3(PO4)12,2.9824
BaSrTbNbO6,2.9826
Cs3CdI5,2.9826
K2CdH4(SeO5)2,2.9829
Rb4Mo5H4Se2O23,2.9833
Li8Fe(O2F)2,2.9833
Cs7Mo8AsO30,2.9834
MgSe2O5,2.9834
CsGaO2,2.9834000000000005
Y2Te3MoO12,2.9836
KLa5V2O13,2.9836000000000005
Na2Ge2O5,2.984
Li2P4WO13,2.9841
VIn(TeO4)2,2.9841
LiFe4(PO4)3,2.9845
SbH3C2(O2F3)2,2.9845
NaNb2Si2PO12,2.9846000000000004
Ba2NbP2O9F,2.9847
Na3Gd(PO4)2,2.9847
LiTiPO5,2.9848
Hf3N2O3,2.9849
BaFePHO5,2.9849999999999994
LiFeSiO4,2.985
MgCoP2O7,2.9851999999999994
Sr2TiSnO6,2.9853999999999994
TlCo(CO)4,2.9854
CaTiSiO5,2.9855
LiMnF3,2.9855
Cs2KNF6,2.9855
Rb3TaO8,2.9856
LiMnF3,2.9856000000000003
NdAl3(PbO4)2,2.9857
KSn2F5,2.9857
K3CoPCO7,2.9857
NaZn(HO)3,2.9858
Si2WO6,2.9858
BaCaNdNbO6,2.9859
TlF,2.9859
LiMo(PO4)2,2.986
BaScO2F,2.9862
Na5HfGa3Si3(SO8)3,2.9863
TbAgH18C20(NO2)6,2.9866
TmBr3,2.9866
Dy2Te5O13,2.9867
HfMg6BO7,2.9869000000000003
Ba2Ga11BiO20,2.987
H4C(N2O)2,2.9871000000000003
CoRe2(H2O3)4,2.9872
VBiO4,2.9872
Li4CrCo2Ni3(PO4)6,2.9872
Ni3Te2MoO10,2.9872
Ba2NdNbO6,2.9872999999999994
Na2GeO3,2.9873
Na3SbCl6,2.9873000000000003
NaIn(TeO3)2,2.9873000000000003
Na8Ca3Zr(PO4)6,2.9874
Al2Cd3(GeO4)3,2.9874
CaSbF5,2.9875
NaLa3TaP3(SO8)3,2.9876
La2WO6,2.9877
Li3Fe5OF11,2.9877
InSb(P2O7)2,2.9879
In4As5(BrO4)3,2.9879999999999995
TbVO4,2.9881
BaCaSmNbO6,2.9882
Li2Ge7O15,2.9882
Na4CaGa(PO4)3,2.9883
Rb2LiYI6,2.9884
BaSi2(NO)2,2.9885
MgV(CO3)2,2.9885
Na8ZrZn3(PO4)6,2.9887999999999995
Mg6SiBiO8,2.9891
Mg7As6(HO6)4,2.9891000000000005
KV3(PbO3)4,2.9891000000000005
In5Cl9,2.9891999999999994
Li4Si2NiO7,2.9893
Cs2V(PO4)2,2.9895
GdTiClO3,2.9895
Na2Ge2O5,2.9897
K4Sb2N3O9F7,2.9897
As3Pb5BrO12,2.9898
NaCa2Mg2(AsO4)3,2.9898
Li4Cr3GaO8,2.9899
Li2SiNiO4,2.9899000000000004
KNdNbInO6,2.99
LiVTeO5,2.9901
Cs3TiF7,2.9901
CsW3Br3Cl4,2.9902
Cd4P6SN12,2.9902
Ba6Lu2(WO6)3,2.9903
CaMg30MnO32,2.9903000000000004
MoWSe4,2.9903000000000004
Na2AlGe(PO4)3,2.9903000000000004
Pr3Si6N11,2.9903999999999997
Cs2NaInCl6,2.9904
Na14Sc4Ga4Si7S5O48,2.9906999999999995
SmAl3(PbO4)2,2.9907
AgBi(WO4)2,2.9907
Li2Fe3F8,2.9908
Mg3Cr2(GeO4)3,2.9909
TiGa2O5,2.9909000000000003
MgTiNiP2O9,2.9911
Rb2TlFeF6,2.9912
N2,2.9912
Li2V(CO3)2,2.9913000000000003
La2Si(IO2)2,2.9915000000000003
Na6MgZr7Si6(SO8)6,2.9915000000000003
CuP2H18C6Cl,2.9917
Sr2PrNbO6,2.9917
VF5,2.9917
Na4Zr2Sc2Si3(SO8)3,2.9918
Na2VOF4,2.9918
K6Mo10O33,2.9921
LiCoPO4,2.9922
Ba2TbNbO6,2.9923
Gd3YO6,2.9924
SrPrAlO4,2.9925
Li2NiGeO4,2.9925
Na5Ta2In2Si3(PO8)3,2.9925000000000006
LiCr2P5O16,2.9926
K3GeH3S3O2,2.9928
CsTa2P5O18,2.9928
Na10Ca2Zr6Si7S5O48,2.9928000000000003
TaSbO4,2.9929
GdSeClO3,2.993
K2Nb2As2O11,2.9930000000000003
Na3Zn4As3H12O19,2.9931
K2NaCoF6,2.9932
VP2C4N3(ClF6)2,2.9932
La3Br6N,2.9932
Na6Zn3As4H6O19,2.9933
Na4Ta2Si5Sn2SO24,2.9933999999999994
LiVSi3O8,2.9934000000000003
Al2Ga2Bi2O9,2.9935000000000005
MgVBiO5,2.9936000000000003
H5C2NO4,2.9937
NaLi4(H2N)5,2.9937
LiCoPO4,2.9939
LiNi(PO3)3,2.994
VH4(CO3)2,2.994
K2H4Pt,2.994
Na2MnPHO3F4,2.9940999999999995
Ge7H18O23,2.9941
K2MoH2S2O9,2.9941000000000004
Rb2AlInCl6,2.9942
LuSBr,2.9943
Y2Te5O13,2.9944999999999995
Zn3Te2P2(PbO7)2,2.9945000000000004
Mg14ZnCrO16,2.9945000000000004
BaH2S5O6,2.9946
Dy2WO6,2.9947
Ho2Hf2O7,2.9948
Mg14VFeO16,2.9949000000000003
Li2SiNiO4,2.9951
CsMg30AlO32,2.9952
Zn3(PO4)2,2.9952000000000005
NaAl3(SiO4)3,2.9953
Cs2MgH4,2.9953000000000003
Na5Ga7H12S13O6,2.9954
HC4NCl2O3,2.9954
VF5,2.9955
LiMnPO4,2.9955
Li8Mn5Fe3(BO3)8,2.9955000000000003
K5LiGe2O7,2.9956
Gd2(WO4)3,2.9956
La2Mg(FeO3)2,2.9957000000000003
Na6Y5Ta3(PO4)12,2.9958
Na4LaTa(SiO4)3,2.9959
Li4MnNi3(PO4)4,2.9959
NbPO5,2.996
Li4Mn3F10,2.996
H7C2SN5O3,2.9961
NdTa7O19,2.9962
NaVO3,2.9962
CaGd2O4,2.9964
Rb2Ba(Ge4O9)2,2.9965
Li3NiPCO7,2.9966
CaTiNiP2O9,2.9967
MgSi2SnO6,2.9969
Fe3Pb5F19,2.9969
LiNiPO4,2.9969
Li4Mn3Fe(BO3)4,2.997
MoAs2O7,2.997
Rb3Ti4Tl(PO5)4,2.9971
Ta2MnZn2O8,2.9972
CsTm(MoO4)2,2.9972
NaHfGe(PO4)3,2.9973
BaTi(GeO3)3,2.9973
KNaFe(Si2O5)2,2.9975
Na6Hf4Ta4Si9(SO16)3,2.9975
Ba2CaTeO6,2.9976
Cs2WO8,2.9976
Li2Co(PO3)4,2.9976000000000003
SrNb2O6,2.9977
TaNbSi(PO6)2,2.9977
Ca3Cr2(GeO4)3,2.9977000000000005
HoAl3(PbO4)2,2.9978
BNF8,2.9979
CaMg6CO8,2.9982
LiMnF3,2.9983
Ba3La9Mg7Nb5O36,2.9983000000000004
Y2SO2,2.9983000000000004
Li2Mn2(SiO3)3,2.9985
Li2SiNiO4,2.9985
Mg2Ta2Mn2O9,2.9985
Na2NiH20C12(N2O3)6,2.9985
Na3Sc2V3O12,2.9985
KAl3(SiO4)3,2.9985
Na6Ta3Al5(PO4)12,2.9988
Na2YTa3Si2(PO6)4,2.9991000000000003
Ba2V2BiPO11,2.9992
InHSeO4,2.9993000000000003
Li3Bi(BO3)2,2.9994
C3ICl(OF3)2,2.9994
Li3Fe2OF5,2.9996
Li2FeSiO4,2.9997
NaCa(PO2)3,2.9997
Pb3BrF5,2.9997
MnAg(PO3)3,2.9998000000000005
Ni5H2Se6(ClO4)4,3.0001
K2C7N4O,3.0002
NaSm9Si6(SO12)2,3.0002000000000004
CrHSe3O8,3.0003
CoH4SeO5,3.0003
C4NCl2,3.0004
Na3Ta2In2SiP5O24,3.0005
BP(PbO2)4,3.0005
SrAgB7O12,3.0005999999999995
BaCaI4,3.0008000000000004
KAl3(SiO4)3,3.0009
RbPaO3,3.0009999999999994
LiP2WO8,3.001
Zn7H10(SO9)2,3.0011
Ba5Er2ZrAl2O13,3.0012
Ca2FeWO6,3.0012000000000003
Co4B6O13,3.0013
Sr10Ga6O19,3.0014000000000003
CsEr(MoO4)2,3.0014000000000003
Cs2KAsBr6,3.0015
GaHO2,3.0016
Ca2BHN2,3.0020000000000007
BN(OF2)2,3.0022
Na15Mg8Ta4P15(SO24)3,3.0024
KPb2Br5,3.0024
Al2CoO4,3.0024000000000006
LiMn2F5,3.0025
V3Pb5O12F,3.0026
Fe3B7IO13,3.0026
FeF3,3.0028
LiH6NO6,3.0028
SrGeO3,3.0028
BaNa4Ti2Si10(BO15)2,3.0028
Ho2Ge2O7,3.0028999999999995
DyBr3,3.0029
LiNiPO4,3.0029000000000003
La2MgZnNiO6,3.0029999999999992
MnPH6NO5,3.003
Al(WF5)3,3.003
Re(CO)5,3.003
ZnAg2C4(SN)4,3.0031
KH18OsN6(ClO2)4,3.0031
Cr2NiH20(NO7)2,3.0033
GdH6C6Cl3(O3F2)3,3.0035
GdH8C10N(O2F3)4,3.0036
RbGdO2,3.0036000000000005
C2S(NCl)3,3.0037000000000003
ScAlN2,3.0038
NaCoH4SO6F,3.0039
Na14Zr4Zn4Si7S5O48,3.0042
LiNiPO4,3.0043
Li5Ga(GeO4)2,3.0043
Mg14BiBO16,3.0043999999999995
Li4Mn3Fe(BO3)4,3.0044
Zn8B4H3O15F,3.0045
Sr2NdNbO6,3.0047000000000006
Li8Mn5Fe3(BO3)8,3.0049
Na5Si3Ge4(PO8)3,3.005
H5PbC2SIN6,3.005
NaHO,3.0051
Li3Bi(BO3)2,3.0051
AlTlSiO4,3.0053
HoTa3O9,3.0053
Na2Ge2O5,3.0053
K2Ge4O9,3.0055
B9H11N4,3.0055
Cs7Co4F15,3.0056
Ca4ZrTi3(SiO5)4,3.0056
Tl3PbBr5,3.0056
Hg3Bi2(TeCl4)2,3.0056000000000003
Li2Mn3F8,3.0057
Na4Si3SnGeO12,3.0057000000000005
LiFeF3,3.0058
LiNiPO4,3.0058
C,3.0059000000000005
Na2CoP2O7,3.0059000000000005
Ho2(SeO4)3,3.0062
MnTeO3,3.0062999999999995
LiNiPO4,3.0062999999999995
CdCo3(PO3)8,3.0064
K2C7N4O,3.0066
Na4Ta3GaSi5SO24,3.0066
Dy2TeO6,3.0066
LiSiBiO4,3.0066
Ca3Zr2AlFeSiO12,3.0066
Li8Mn5Fe3(BO3)8,3.0066
Na3HfSi2GePO12,3.0067000000000004
Al4ZnS7,3.0068
Tb4MgAl2(FeO6)2,3.007
Li4Ni(BO3)2,3.0071
KSn2Cl5,3.0071
Ho2Te5O13,3.0071
VF5,3.0073
Ti3H2O7,3.0074
Li3SbN3(O3F)3,3.0075
Nd6H40N8O49,3.0075000000000003
Dy2SO2,3.0076000000000005