formula,band_gap (MP)
MgZn2(FeO2)4,1.4215
TmAgS2,1.4215
Sr2Li2Nb4O13,1.4216
Al5CuS8,1.4217000000000004
Pr10Se14O,1.4217999999999995
K2Ga3CuSe6,1.4218
Na4Mg(Mo2O5)2,1.4219
V(PO3)4,1.4219000000000002
ZnNiF4,1.422
Na2CoGeO4,1.422
Mn3AgAs3(HO6)2,1.4220000000000002
Te2PdPb2(ClO3)2,1.4221000000000004
Tl3BS3,1.4222
Mg14NbFeO16,1.422299999999999
MgZn2(FeO2)4,1.4223
Ga2P3(NO4)3,1.4223
K2Pd(S2O7)3,1.4223
Na5La3Ge(PO4)6,1.4223
LiFe(PO3)4,1.4224
Cs4P2PdSe8,1.4224
NbNO,1.4225
Li2FeO2F,1.4225000000000003
ZrGeN2,1.4225999999999996
ZnBiMoO5,1.4226
MgFe6(OF)6,1.4226
Ga(BiCl)4,1.4227
K2MgFe4P6(O4F3)4,1.4228
KNb(CuSe2)2,1.4228
TeMoWSe2S,1.4228
Mg4Sn5(TeO6)3,1.4229000000000005
Mg6CoBiO8,1.4229000000000005
LiIrO2,1.423
SbPbBrO2,1.423
Pr3U(ClO2)3,1.4230999999999998
MgMoO3,1.4230999999999998
CsRe3(Se2Br)2,1.4231
Ba4Sr2La2Co4O15,1.4232000000000005
Li3Fe3(OF)4,1.4232999999999998
MgCo6(OF5)2,1.4232999999999998
Ba6Pr2Co4O15,1.4233000000000002
CsV2O5,1.4234
Li9Mn2Co5O16,1.4234
Rb3As7,1.4234
MgNi2(BiO3)2,1.4234999999999998
LiV(TeO4)3,1.4234999999999998
Lu2Sb2O7,1.4236000000000004
Ba3In2Cl2O5,1.4236000000000004
Te2Mo2SeS,1.4237000000000002
Sb2TeSeF10,1.4238
V2(SO4)3,1.4238
Li5Mn3Cu(PO4)4,1.4238
TaNb(Cu3Se4)2,1.424
RbIn3O5,1.4240000000000004
Th2SN2,1.4240000000000004
Cr2TeO6,1.4242
SbTe(SeF3)2,1.4242
Li8Sb2S,1.4242
V2P2O9,1.4243
Cd(CoO2)2,1.4243
YbV4O8,1.4243
Li6V3P8O29,1.4243
Yb(GdS2)2,1.4243
Li3Mn(BO3)2,1.4244
Mn(Ni3O4)2,1.4245
LiVO2,1.4245
K3As11,1.4247
Co(AsO2)2,1.4247
AgBiO2,1.4247
MnHO2,1.4247999999999998
Li6V3P8O29,1.4247999999999998
Li4CrFe3O8,1.4247999999999998
V2AsO6,1.4248000000000005
Na6Nb3In5Si6(SO8)6,1.4248999999999998
Na3MgBiO4,1.4249
Ge19(AsBr)4,1.4249000000000005
Rb3Ta2AgSe12,1.425
NClO6,1.4252
Li5Fe2P2(CO7)2,1.4253
Hg2Te2O7,1.4253000000000005
Al2HgSe4,1.4253999999999998
MgV5O12,1.4255
ZnCrPO5,1.4255000000000004
Hg5(SbI3)2,1.4256000000000002
Ti(CuS)4,1.4256000000000002
KAuCl4,1.4257
TmBi2IO4,1.4258999999999995
GeBr2,1.4259
Mg(FeO2)2,1.4259000000000004
Mg3Mn2(SiO4)3,1.4259000000000004
As2O5,1.426
Na6Ga5Si7H15O32,1.426
La6S4BrN3,1.4261
ReHg2O5,1.4261
FeSeO3F,1.4261
TlAuF6,1.4262
HoTlO2,1.4262
Zn2FeSbO6,1.4263
LiMnB2O5,1.4263
TlIn(PSe3)2,1.4263000000000003
KAuO2,1.4264
BaCuSeF,1.4265000000000003
NaLaCeNiO6,1.4265999999999996
LiMo(PO4)2,1.4266
LiFe4(BO3)4,1.4266
Li4CrFe3O8,1.4267
RbAu(SeO4)2,1.4267
Cs2YCuF6,1.4267000000000003
YMg6CdO8,1.4268
LiVCrP2(O4F)2,1.4268
Li4Cr(PO4)2,1.4268
In5(BiS4)3,1.4268999999999998
Te2Mo3W(SeS2)2,1.427
Mg(ScSe2)2,1.4270000000000005
MoO2,1.4271999999999998
Dy5C2I9,1.4272
KFePbOF6,1.4272999999999998
Li6V3P8O29,1.4272999999999998
ZrCoO3,1.4273999999999996
CoH24C4S4N8(ClO4)2,1.4274
OsSeS3Cl4,1.4276
Ba(GaP)2,1.4276999999999995
CaV(SiO3)2,1.4277000000000006
KTaW2O9,1.4278000000000002
Mg14TiZnO16,1.4278000000000013
CsBi3S5,1.4278999999999995
LiCoSbO4,1.4278999999999995
K2PdCl4,1.4279000000000002
Zn3W2O7,1.4279000000000002
NdFeO3,1.428
LiVBO4,1.428
Na3As7,1.428
Na2Hf4Ti4Si5S7O48,1.4280000000000002
Mg4Co5(TeO6)3,1.4281999999999997
V3CoO8,1.4283
K3Rb3Zn4Sn3Se13,1.4283
RbAuO,1.4283
Ca2TaMoO6,1.4283
Ti3N2O3,1.4284000000000003
Er2TlCu3S5,1.4287999999999998
Li4CrFe3O8,1.4288000000000003
LiSb3O8,1.4288999999999996
KCr2AgO7,1.429
BaGeO3,1.4290000000000005
Li4V3O8,1.4290000000000005
Li4CrFe3O8,1.4291999999999994
InSn2I5,1.4292000000000002
Ca2Bi10O17,1.4293
VCrO3,1.4293000000000005
Zn2CrWO6,1.4293999999999998
CaWF4,1.4295
Hg7(PO5)2,1.4295
Cs8(Re4S9)3,1.4297999999999995
V3(OF3)2,1.4298000000000002
YSbO3,1.4299
Li3Cr2P2(O4F)2,1.4299000000000004
Y2MgV2O7,1.4299999999999995
Cu3P4S4I3,1.4300000000000002
K8Rb2Hg15(GeS4)10,1.4300000000000002
Cd(FeO2)2,1.4301
Ca4MnFe3O10,1.4301
MgMn2(MoO4)2,1.4301000000000004
Tl2(SeO4)3,1.4303
VP2O7,1.4303
V4OF11,1.4304
K2PdC2,1.4304
Li2CoBO4,1.4304
TlPt3O4,1.4306
KGaTe2,1.4307
Tl2(ReS2)3,1.4307000000000007
K2RbMoI6,1.4308
CsAgPSe3,1.4308
Na3LaSiGe(PO6)2,1.4308
Sr(LuSe2)2,1.431
MgBi2(SbO4)2,1.431
Cs2Mo5(P3O11)3,1.4311
Gd2(SO4)3,1.4311999999999998
CaCu2B2H8(ClO4)2,1.4312
Sr2LiH2N,1.4314000000000002
NaVPO5,1.4314999999999998
Sb2(CN2)3,1.4315000000000009
LiMnV(P2O7)2,1.4316999999999998
K3SbSe4,1.4318
Sr4TiP4,1.432
LiFe2O2F3,1.432
Ce2Gd2O7,1.4320999999999997
KZn(H2Br)3,1.4322
CaV3P3O13,1.4322
Zn(MoO2)2,1.4322999999999997
C68OF20,1.4323
Mg(BiO2)2,1.4323000000000006
BaAgSF,1.4324
GaGe5H6C4NO12,1.4324
Li32Ti13Cr3O48,1.4325
B12Pb6O25,1.4325
Ba3NiF12,1.4325
Li4CrFe3O8,1.4326
Al2Fe3(PO5)3,1.4326
H5PbCI3N2,1.4326
Au2Se4O11,1.4326
Ta2CrNO5,1.4326000000000003
K3Np(H3O4)2,1.4329
MgMo2(PO5)2,1.4330000000000005
Li2CrFeO4,1.4331
Zn2SbWO6,1.4332000000000005
Cs3SbSe4,1.4333
B,1.4333999999999998
CoH18C6SO10,1.4335
Li2MnV4CoO12,1.4335999999999998
Na6Li3Fe6(PO4)8,1.4336
Cs3Nb9(TeO8)4,1.4336000000000002
TiZn2O4,1.4336000000000002
KUCrO6,1.4337999999999995
Na6Ca4Ta4Si5S7O48,1.4338
CaNp(HO)9,1.4339
MoWO6,1.4339
Rb5FeO4,1.434
Li3Fe10O7F9,1.4340000000000002
InOF,1.4340000000000006
Si4P4Os,1.4341
C3N4,1.4341
SrCaGdBiO6,1.4342
GaH15N4(OF3)2,1.4342
GePbN2,1.4343999999999992
Ba(SmSe2)2,1.4344
LaCuPbS3,1.4345
C4SeO2,1.4345
Ca5Sc2(CoO6)2,1.4346
RbNb4Ag(PS10)2,1.4346
V2(OF)3,1.4347
TlRe6Se8Cl3,1.4347
NaNb2Zn2P3(SO8)3,1.4347
MgV2Ni(TeO5)2,1.4347000000000003
LiAlCrO4,1.4347999999999996
V4O7F5,1.4348
Mg3H12SeO9,1.4348999999999998
K10Co4O9,1.435
NaMgCoO2,1.4352
LiMg30MnO32,1.4352
TeMoS,1.4352999999999998
Cr2Ag2O7,1.4355
Al6SnTe10,1.4355999999999995
V2CdO10,1.4356
NaV3P3O13,1.4356
S(IN)2,1.4356999999999998
Nd2FeSbO7,1.4356999999999998
Na2LiFePCO7,1.4357
RbFe5O8,1.4357
Ba2MgAl2(Fe4O7)2,1.4357000000000002
MgV2(Cl2O)2,1.4357999999999995
Bi2Se5Cl7,1.4358000000000002
SrV4O10,1.4358999999999995
EuH6CI3N,1.4358999999999995
MgV4ZnO10,1.4359
Ta2CrNO5,1.4359999999999995
Tm9B5S21,1.4360999999999997
Na3MgSbS4,1.4360999999999997
TiMn3O8,1.4361000000000002
LuO3,1.4362999999999997
K4CO4,1.4363
V2Si4O11,1.4363
Hg2SeO4,1.4363
Cu2SO4,1.4363999999999997
ZnNiMoP2O9,1.4364999999999997
SbPbIO2,1.4366000000000003
Li2Mo3S4,1.4366000000000003
Li4Mn2Si4O13,1.4366999999999996
Na2ZnSiSn(SO6)2,1.4367
TbCrTeO6,1.4368
K2MoAuF6,1.4368
Rb2Ti(CuS2)2,1.4368000000000003
MgV2Ni(TeO5)2,1.4371
Li7Mn2Fe6(PO4)8,1.4371
MgMnGeO4,1.4371
Sm3CuSiSe7,1.4373999999999998
KBaV5O18,1.4374
Li5Fe8(BO3)8,1.4374
Cs2NaAs7,1.4374
Fe2CoO4,1.4375
AsCl5,1.4376
LiCuO,1.4376000000000002
Nb(PS4)2,1.4379999999999995
LiFeOF2,1.4380000000000002
Li3Cr2(PO4)3,1.4381
MgFe6(OF)6,1.4381000000000002
LiV(PO3)3,1.4381000000000004
Cd4SiS6,1.4382
AgNO2,1.4382
KNb2PS10,1.4382
Li2MnO3,1.4382
Ca(ErS2)2,1.4382999999999997
Fe3BO6,1.4383
Er2MgS4,1.4383000000000004
Mg6ZnCO8,1.4383999999999997
CsPbI2Br,1.4384
SbO2F,1.4384
LiFe2(PO4)2,1.4384
NaV2P2O9,1.4384
MoS2Cl3,1.4385
Mo2P3O13,1.4386
Rb14Si10O17,1.4386
Na3NiO2,1.4387
Cs2SnBr6,1.4388999999999998
Pr5C2Br9,1.4388999999999998
Co3H18C8(N3O4)2,1.4389
Na5CoO4,1.4389
Mg4B8H31,1.439
K3CuO2,1.4390000000000005
K6Mg(SbS4)2,1.4390999999999998
Li5Fe3(SnO5)2,1.4391000000000007
LiFeO2,1.4392999999999994
Tl2CuAsO4,1.4394
RbBSe3,1.4394
Na2Zn2Se3,1.4395
TbVO3,1.4395999999999995
IF7,1.4397
Na3MnBAsO7,1.4399
Li3Cr3(PO4)4,1.4399000000000002
Ca2Nb2O7,1.4400000000000004
Te2C4S3(O2F3)3,1.4401000000000002
Li5Fe8(BO3)8,1.4401000000000002
Ba2MgMn2O6,1.4403
Na7Ca3TaSi3(SO8)3,1.4403
MgFeCoO4,1.4403
Li4TiCrO6,1.4404
LiFe8(OF)8,1.4404
MnFe3(PO4)4,1.4405
Rb5Ta(TlAs2)2,1.4405
LiZn2Cu,1.4406
BaCaGdBiO6,1.4407
Y2SiSn2S5O24,1.4408
CsNb2PS10,1.4408000000000003
MnFe7(PO4)8,1.4408999999999998
LaMnO3,1.4409
La2CuSbS5,1.4409999999999998
Cs(SbS2)2,1.4413
Li2MnBr4,1.4413999999999998
Ba3La3Mn2(WO6)3,1.4413999999999998
K2Ce(PO4)2,1.4413999999999998
CsLaNb2O7,1.4413999999999998
Mg6FeSiO8,1.4414000000000016
Th3N4,1.4415000000000004
Na5CuCO5,1.4416999999999998
FeHO2,1.4417
Cs2PtBr6,1.4417
FePCl8,1.4417
Sr4Mn2CoO9,1.4417000000000004
Cs2Fe2(MoO4)3,1.4418000000000002
K2MgFe4P6(O4F3)4,1.4418000000000002
Na24Ca10Nb2Si9(SO8)9,1.4419
CdRe2C2(N2O5)2,1.4419
Na8Mg3TiSi3(SO8)3,1.4419999999999995
Ag6SbAsS6,1.4419999999999995
TiMn2O6,1.4420000000000002
Ta2CrNO5,1.4420000000000002
UBr4(NO2)2,1.4421
Re3Se4Br,1.4421000000000004
Li2Ti3MnO8,1.4421999999999997
Mg2TiWO6,1.4421999999999997
MgV4(O2F)4,1.4422
LiTi(PO3)5,1.4422
Rb3CuO2,1.4422
P2IrClF6,1.4422
Co10Ge3O16,1.4422999999999997
CsSr2Nb3O10,1.4423
Pr3SiAgSe7,1.4423000000000004
Na14Ca5Ge3(PO4)12,1.4425
Na4NpH7O9,1.4425
LuBi2IO4,1.4425
Ca(SnO2)2,1.4426000000000003
Na14Ni2O9,1.4427
Na2VO3,1.4427000000000003
Al5C3N,1.4427000000000003
MgCr4O12,1.443
Sr(TbSe2)2,1.4432
Li5Fe4(P2O7)4,1.4432000000000005
Sr3Sb3N5,1.4433000000000002
CaMnBiO5,1.4433999999999996
Li24Ti11CrO36,1.4433999999999998
In2SiSn2S5O24,1.4433999999999998
HgH6I3NO,1.4435
RbHS,1.4435
CaMg30SiO32,1.4436
NbP4Se3Cl5,1.4437
Sr2Co(ClO)2,1.4438
LiMgSb,1.4438
Na2Mg(MoO3)2,1.4438
H20RhC3N9Cl6O,1.4438
Sr4Re2NiO12,1.444
Na2Zn3Se4,1.444
Cs2NaMoBr6,1.4443
Cu2WS4,1.4443
Te4MoW3(SeS)2,1.4443
PNO4,1.4444
CdSnP14,1.4444999999999997
Na6NiO4,1.4446
Mg(SbO2)2,1.4446000000000003
Na2Ti2Si3Ge2(SO8)3,1.4447
MnHg3F6,1.4447
CaP2WO7,1.4447
Li6V3P8O29,1.4447
Te3W2S,1.4447999999999994
VF4,1.4449
Mn3Co3(TeO6)2,1.4449999999999998
Ba2Ti6N2O11,1.4450000000000005
Na10Mg3Si6Sn5(SO8)6,1.4453
MgSiO3,1.4453000000000005
LiMnPHO5,1.4454
Y5C2I9,1.4454000000000002
Sr(AlTe2)2,1.4454000000000002
LiTb4Al2(FeO6)2,1.4455
Er(CuS)3,1.4455999999999998
KF2,1.4455999999999998
Ca4Mg4Fe3H22,1.4456000000000002
Cr3Si3Pb10(ClO12)2,1.4457
Ca2Ta2SiS5O24,1.4457
Cs4P2Se9,1.4457999999999998
LiFe6(OF2)4,1.4458999999999995
Li6V3P8O29,1.4459
Te4MoW3(SeS)2,1.4459
Zn4As2O9,1.4459
Rb4MgMo2(SO)4,1.4459000000000002
Mg(BiO2)2,1.4459999999999995
Zr6FeCl14,1.446
BaYFe4O7,1.4460000000000002
Na8Mg(NiO4)2,1.4461
Mg2Ta2CrO8,1.4461000000000004
K4MgV2O7,1.4462
Sr3LaTi2Mn2O12,1.4462000000000002
Sb8(Pb3S7)3,1.4464999999999997
Sr4GaCN5,1.4465
MgFe6O7F5,1.4465
Nd3SiAgSe7,1.4465
TbSi4B18C,1.4466
Mn(PO3)3,1.4468
Fe3OF5,1.4469
TlBi(PSe3)2,1.4469000000000003
SrLi2Nb2O7,1.4469999999999998
BaMg2FeH8,1.4470999999999998
ErCoO3,1.4471000000000005
Mg3Cr3(AsO4)4,1.4471000000000005
YCrTeO6,1.4471999999999996
Na42Mg16Ta8Si21(S5O48)3,1.4472
Na42Ca20Nb4Si15(S7O48)3,1.4472999999999998
Sr4NbCoO8,1.4473000000000005
HoErO3,1.4474
CrHg3O5,1.4475
CsS2N3,1.4476
CsSm2Ti2NbO10,1.4476
Li3Fe8(BO3)8,1.4476
MgV2Te2O7F2,1.4476999999999998
VOF,1.4477000000000002
CeSiO4,1.4477999999999995
Cd4AsPI3,1.4478000000000002
Sr2SnSe3F2,1.4478999999999995
Ba2CoSe2(ClO3)2,1.448
MgMn2FeWO6,1.4482000000000004
LiTi2V3O10,1.4482999999999997
LiFe2(BO3)2,1.4483
BaNb3NO7,1.4483
Li6V3P8O29,1.4484
Cd3AsCl3,1.4485
MgFe6O7F5,1.4485
Fe5SiO8,1.4485
Ti3N2O3,1.4486999999999997
Te2MoWSeS,1.4487000000000003
Li4Ti2Fe3O10,1.4488
Na3Np(H3O4)2,1.4488
La5Ti4FeO17,1.4488000000000003
MnVHPbO5,1.4488999999999996
Ba3TiS5,1.4489
LiCrBO3,1.4489999999999998
Li9Mn2Co5O16,1.4490000000000005
Na12Nb2Zn10Si3(S5O24)3,1.4490999999999998
FeH6SO6,1.4491
Zn2Hg2H2Se2O11,1.4492
Na2Ti4Si5Sn4S7O48,1.4492
SbOF3,1.4495
Cd5(S2Cl)2,1.4495
La4Cu6(MoO4)9,1.4495999999999998
Na2AgRhF6,1.4496
CsAs2Se3,1.4496000000000002
H5CSO5F3,1.4496000000000002
Fe8H10O17,1.4497
Zn(NF2)2,1.4497
Ba(AuO2)2,1.4498000000000002
Li9Mn3P8O29,1.4499000000000002
KLaZrMnO6,1.4499999999999995
Li3MnAl2O6,1.4500000000000002
Ba2MgZnWO6,1.4500000000000002
Ca2CeNiO6,1.4500000000000002
Sc2GaN3,1.4501
LiMn4(PO4)3,1.4501
Ti(PS3)2,1.4501000000000002
Fe3(OF)2,1.4501000000000002
TlSbAs2PbS6,1.4503
Ti3N2O3,1.4504
TiCdO3,1.4505
Rb2Sn3O7,1.4505999999999997
WO5,1.4506
Pd(C4N3)2,1.4507
C3S4,1.4507
LiMnF4,1.4507
AlMoN3,1.4508
H4N2O3,1.4509999999999998
Te4MoW3Se4,1.451
CuReO4,1.451
Ba2FeBrO3,1.4511000000000005
Na4Mg(FeO2)4,1.4511999999999998
FeI(NO)2,1.4512
NaV3F7,1.4512999999999998
V3O7,1.4513
Bi5(S2Cl)3,1.4513000000000007
Cd7P10,1.4513999999999996
Cr3(OF)2,1.4514
Rb9Al(HO2)4,1.4514
Te2MoWSeS,1.4515000000000002
Te2MoWSe2,1.4515000000000002
Li2Ti3NiO8,1.4515999999999996
VPHO5,1.4516
Mg6CuBiO8,1.4516
Te4Mo3WSe4,1.4516000000000004
HfPbS3,1.4517000000000002
Ba2LuBiO6,1.4518
LiVSnO4,1.4519000000000002
Hg2PO3F,1.452
FeSiO3,1.4521999999999995
TeW2Se3,1.4522999999999997
FeHO2,1.4523
LiV3(O2F)2,1.4523000000000006
NaHgPO4,1.4524
V4P2O13,1.4524000000000004
Ca(SnO2)2,1.4524000000000008
MgFe2(CoO2)4,1.4525999999999994
Ca(TmS2)2,1.4526
NiH44C12N8(ClO5)2,1.4526
Na2La3Nb5Si6(SO8)6,1.4526
LiGeN,1.4526999999999997
Cs2KMoI6,1.4527
Fe4O3F5,1.4527
BaPdF4,1.4527
AlNi3Se2ClO8,1.4528999999999996
Li4V3SiO10,1.4529
Li6V3P8O29,1.4529
HIO4,1.4529999999999998
Li4V3Fe2Sn3O16,1.4530000000000003
VPO5,1.4531
MgV2(SiO4)3,1.4533
Ir(SeBr3)3,1.4533999999999998
LaCu(MoO4)2,1.4535
MgFe4As2O11,1.4535999999999998
Pr5AgSe8,1.4536999999999995
EuI2,1.4536999999999995
TeW2Se3,1.4538000000000002
K2Mg(FeO2)2,1.4539
Cs2PbCl6,1.4541
Rb2Pt3S4,1.4542000000000006
MgTi(FeO2)4,1.4543
Ce14Gd18O55,1.4543
K2Ta3Cl9,1.4543000000000004
CaCr2F12,1.4544
KLiPH3O3F,1.4546
Li3Fe8(BO3)8,1.4546
Tm2S3,1.4546
MgMnAs2O7,1.4546
MgGe2(WO4)2,1.4547
LiSbN2,1.4547999999999996
Li9Mn2Co5O16,1.4547999999999996
LiVP2HO8,1.4548
Ce2Te4Cl2O11,1.4548
LiSb(PO4)2,1.4549
Mo2NO7,1.4549
InHg7S6Cl5,1.4549000000000003
CdSiN2,1.6216
CsZnCoF6,1.6216
Li3V5O12,1.6216000000000002
K2Nd2Mg(SO4)4,1.6216999999999997
La3BeInS7,1.6217000000000006
GdSClO4,1.6219
LiMnH8(SO6)2,1.6219
KLaGeSe4,1.6220000000000003
Fe(PO3)3,1.6221
Na5Ca2Sn2P5SO24,1.6221
Na5NiCO5,1.6222
LiNb7V12O48,1.6223
BaCuSF,1.6223
VPO5,1.6223999999999998
LiCr3O8,1.6223999999999998
Rb2NaMoCl6,1.6223999999999998
CsNd5Se8,1.6224999999999996
Te2Mo3WSe6,1.6224999999999996
Na2FePCO7,1.6225999999999998
Li3MnCoO5,1.6226
YGeP(SO6)2,1.6227999999999998
Cr5(PO4)4,1.6227999999999998
Ta2Pb2O7,1.6231
Fe6OF11,1.6231000000000002
Li7Fe4(P2O7)4,1.6231999999999998
CoH15Pd(NCl)5,1.6232
TlHg(AsS2)3,1.6232000000000002
In4(SnO4)3,1.6232999999999995
Mg3SbN,1.6233999999999993
VPH5O7,1.6235
S4IN3Cl2,1.6235
Na3LaSiSn(PO6)2,1.6235
Er2MgS4,1.6235
KPrNb4O12,1.6235
NaV(NF3)2,1.6235000000000002
Yb(GaSe2)2,1.6236000000000002
As4Se3,1.6237
LiV2OF5,1.6237999999999997
Ge3N4,1.6238
PrSO,1.6238
Li2Mn2OF4,1.6239
KCeNbSnO6,1.6239
K2SnCl4O,1.624
Na2MgGeP2SO12,1.6241
Cs5YO4,1.6241
Be3V2(SiO4)3,1.6241999999999996
CaC2S2(OF)2,1.6242
MnInBr3,1.6242
Cs2Sn2Hg3S8,1.6243
BaSrMg(FeO2)4,1.6244999999999998
Al2CdTe4,1.6245000000000005
Li9Mn2Co5O16,1.6245000000000005
LiMo(PO3)5,1.6246
Ba2UNiO6,1.6246
VPO4F,1.6246000000000005
Li5Fe2P2(CO7)2,1.6246999999999998
Ti2Sb2Pb4O13,1.6246999999999998
CaTi4(FeO4)3,1.6248
LiVPO4F,1.6248000000000002
MnV2O6,1.6249
Mg6MnSiO8,1.6249000000000002
Al2ZnTe4,1.6250999999999998
Rb2YAuBr6,1.6251
MgFe2(HO2)2,1.6252999999999995
K3Ag9(SbS3)4,1.6252999999999995
TbTlS2,1.6253000000000002
AlInN2,1.6253000000000002
Fe3OF5,1.6254
LiTb4Al2(FeO6)2,1.6254
Rb4Mg(FeO2)4,1.6254000000000002
Na2GeSe3,1.6256
KCoPH2O5,1.6258
Tm2TiO5,1.6258
Zr7VO16,1.6258000000000004
FeBiO3,1.6259
Li2FePO5,1.626
ZnGe7N10,1.626
Na2O,1.626
Li2Mn3NiO8,1.6261
TiAlFeO5,1.6263
LiVFe(P2O7)2,1.6263
Na5SbO5,1.6264
Ca(FeO2)2,1.6264999999999996
Te4Mo3W(SeS)2,1.6264999999999996
BaCaNdBiO6,1.6265999999999998
Ba2NdVO6,1.6267
Na9Fe2O7,1.6267
Na5Mg2Nb2SiP5O24,1.6267999999999998
Li2TiFeO4,1.6268999999999996
Li2Mo(PO4)2,1.6269
Na2NbIn3Si2(SO6)4,1.6269999999999998
Fe2C2O7,1.627
NiAs2S6(OF)12,1.627
Li4Cr3CoO8,1.6271000000000004
As(BrF2)3,1.6272
Ag2TeO3,1.6272999999999995
Rb2AgSbCl6,1.6275
Zr2AgN3,1.6275999999999995
VCrO4,1.6277
Li5MnP2(O4F)2,1.6278
Ce2Dy2O7,1.6279
Na5MgSbO5,1.6279999999999997
NaVPCO7,1.628
LiFe2(PO4)2,1.6281
MgV2CoO6,1.6281999999999996
LiV2O5,1.6282
VAgO3,1.6283
Na2LiTlCl6,1.6283
K3CoO2,1.6284
TaMn2FeO6,1.6284
As2O5,1.6284999999999998
Na3SiSe4,1.6285
SrAlSi5N7O2,1.6285999999999996
RbC4N3O4,1.6286
Ca2AlMoO5,1.6287000000000005
Ba2SmVO6,1.6287000000000005
O2,1.6288
Mg14TiVO16,1.6288
Na14Zn5Si6Sn3(SO8)6,1.629
Li7Fe4(PO4)6,1.6292
InHO2,1.6292
ErCuS2,1.6292999999999995
Na4Mg(BiO3)2,1.6294
S(IN)2,1.6295
Mg14AlNiO16,1.6296
YMo(WO4)2,1.6296
Ba3(AlN2)2,1.6296
Mg30CrSnO32,1.6296000000000008
Na8Mg(FeO4)2,1.6302
K2NaGaBr6,1.6303
CoBi6(SO8)2,1.6303
LiCo2OF3,1.6303999999999998
Zr(CuCl3)2,1.6303999999999998
Rb5TiSb7O22,1.6305
K4Ba2N7O16,1.6305
FeAsO4,1.6305
CaSn(GeO3)2,1.6305999999999998
BaSrDyVO6,1.6306999999999996
SrCaSmBiO6,1.6307999999999994
VP2NCl10O,1.6309
Li2CuP3H8O13,1.6309000000000005
LiLa4MnO8,1.6309000000000005
H2W2O7,1.631
LiVFeO4,1.6311999999999998
SrTi7N10,1.6312000000000002
P4Se3I2,1.6312000000000002
CsTiMnOF5,1.6313000000000002
LiFe2(BO3)2,1.6316
NaNbO3,1.6316000000000002
Hg2Pb(SI)2,1.6317
Li2Fe3WO8,1.6318
GePb3O5,1.6319
K3NiO2,1.632
Li2U4W4O25,1.632
Fe2OF3,1.632
Ca3Mn2(Si2O7)2,1.6320999999999994
KV3Ge2O9,1.6321
Cs3GeSe3,1.6321
MgP2WO7,1.6321999999999992
La4MgSi4(C2O11)2,1.6322
Ho2Se3,1.6322
Te6Mo3WSe2,1.6323
Sm2MgCr2O8,1.6323
Na6Ta4Zn4Si5S7O48,1.6323
FeH12(NF2)3,1.6323
Li7Mn(O2F)2,1.6323
SrNb6O16,1.6323
NdIO9,1.6323
DyCuS2,1.6324
TbCuPbS3,1.6325000000000005
Li2TiFeO4,1.6326
LiFeSnO4,1.6326999999999998
CaBiMoO5,1.6326999999999998
CaDyMnSnO6,1.6328
Ti3(BiO3)4,1.6328000000000005
FeBiO3,1.6328999999999994
LiCa2Nb3O10,1.6329999999999998
Tl3PdCl5,1.633
Na4Al3Ge3NO15,1.633
Li4VO3F2,1.6330000000000002
Ba2SmVO6,1.6332
Cs3NpH8O9,1.6332
K2RbMoCl6,1.6332
KPrGeSe4,1.6332
La4MgCr2O12,1.6334999999999995
GaHO2,1.6336
Rb4CO4,1.6338
K6Zn4Sn5S17,1.6338
MgFe3Ni2Sb(PO4)6,1.6338000000000004
Si2AgN3,1.6338000000000008
BaSr(FeO2)4,1.6339
MgV2Zn2(SiO5)2,1.6339
VHO3,1.6339
Cs2VS5O,1.634
LiAgF2,1.634
W3O8,1.6341
Li3FeO3,1.6343
K3SbTe3,1.6343
Sr3UIn2O9,1.6343
SbSCl9,1.6343
CsLiO,1.6344000000000003
AlGaP2,1.6344000000000003
Ba2UHgO6,1.6345
WS2,1.6345
Li2FePCO7,1.6345999999999998
Li12CrNi3P4(CO7)4,1.6346000000000005
Li5Co7O3F13,1.6348
Na15W7N19,1.6348000000000005
Na18Ta4Zn20Si3(S11O48)3,1.6349
MgV2(CO3)4,1.6349000000000002
AlAgS2,1.6349999999999998
UO3,1.6349999999999998
FeSeO4,1.6350999999999998
Cs2NbCuSe4,1.6350999999999998
VPO5,1.6351
Na2Ta2Al6Si3(S3O16)3,1.6352000000000002
NaTiFeO4,1.6353
MgFe6(OF)6,1.6353
ZnFe2As2(HO5)2,1.6353
Fe(PO3)3,1.6353000000000002
Mg6CoNiO8,1.6355000000000004
Ca2HN,1.6356000000000002
Nd3CuSiS7,1.6357
CuH5C5NCl,1.6357000000000002
K2Nb6Ag(PO8)3,1.6358
Co3(PO4)2,1.636
Tb4Mg(WO6)2,1.6360000000000006
AuBrF6,1.6361000000000003
GdSbO4,1.6361999999999997
Al4H50S7O52,1.6362
Na2Nb4Si7Ge4S5O48,1.6362
K3MoCl6,1.6364
BaTi2Fe4O11,1.6364
Li3Fe3(PO4)4,1.6366
Mo2P3O13,1.6366
MgZn2(FeO2)4,1.6366999999999998
NaFeO2,1.6367000000000005
Gd2MgCr2O8,1.6367999999999996
Ag2Bi2S3Cl2,1.6367999999999996
LaNb3O9,1.6369000000000002
Cd(HO)2,1.637
LiVFe(P2O7)2,1.637
Cs2NaMoCl6,1.6371
Rb2AgSbS4,1.6372
Sr2SmVO6,1.6372
Li3Fe8(BO3)8,1.6373
VP6(WO8)3,1.6373
CdSbS2Cl,1.6373000000000002
Mg14CuSiO16,1.6373999999999995
Mg30CrNiO32,1.6373999999999995
LiCo3OF5,1.6378
Zn2IN,1.6378
Sm2ZnS4,1.6378000000000004
Si12CO24,1.6378000000000004
Li2O2,1.6379
V5(PbO6)2,1.6379
BaSnS2,1.638
Ba2NdVO6,1.6381
FeSbO4,1.6381
Na2Fe3(PO4)3,1.6381
CoF3,1.6382
LiFe5(OF2)4,1.6382
HfMg6CuO8,1.6382000000000003
FeAg(SO4)2,1.6382999999999996
SbCN2OF3,1.6383
Cs3Cu5O4,1.6383
UO3,1.6383
P(H2I)2,1.6384
Li6Fe5WO12,1.6384000000000003
Sm5AgS8,1.6384999999999996
S3N2,1.6385999999999998
VIO7,1.6385999999999998
Cs2Pt3S4,1.6386000000000005
CaFe3P3O13,1.6386000000000005
SeS2(NCl)2,1.6388
CoSb(PO4)2,1.6389000000000005
LiFe6(OF2)4,1.6389999999999998
Li2MnBr4,1.6389999999999998
Hg3S2BrCl,1.639
Na4Mg(FeO3)2,1.639
TlNO2,1.6390999999999998
GaRe(Cl3O)2,1.6391
SnH16C4(Br3N)2,1.6391
Rb2Fe2As2O9,1.6391
U2CoSi2(H7O9)2,1.6392
Rb2NbCuSe4,1.6393999999999995
Os3C10O11,1.6394
LiFeSiO4,1.6395
RbCu2Br3,1.6395000000000002
Ca(SbO2)2,1.6395999999999995
Te3WO12,1.6396000000000002
NdFeC6(N3O2)2,1.6396999999999995
Li2CuP3(HO5)2,1.6397
Li6Fe2O5F2,1.6397
KPbBr3O,1.6397
Rb4Ta2S11,1.6397999999999997
Li3MnCoO5,1.6399
RbMg6WO8,1.6399
CuP4Se3Cl,1.6399
Li3Fe(PO4)2,1.6401
Li9Mn2Co5O16,1.6401000000000003
Li2V3CoO8,1.6401999999999997
Na8Mg3Si3Sn(SO8)3,1.6402
Li2CrO2,1.6403
Li2V2OF6,1.6403
Hf3Ni(OF)6,1.6403
BaSrNdVO6,1.6403000000000003
NaNbSi3Sn3(SO8)3,1.6404
CdGa2(SeS)2,1.6405
Li9V5(SiO8)2,1.6405000000000003
NaFeO2,1.6406
K2B2Se7,1.6406
Ca2AlSnO5,1.6406
Mo2P2O11,1.6407
BaSrSmVO6,1.6407000000000005
Li4Fe2O5,1.6407000000000005
Na6Sc4Nb4Si7S5O48,1.6408
Ti3ZnSiS5O24,1.6408
Ba2PrVO6,1.6409999999999996
V4(OF3)3,1.641
Sm2PbSe4,1.6411000000000002
Dy2Mo3H2Se2O17,1.6412
CsSbPO4F3,1.6413
Li4Fe2SiO7,1.6413000000000002
Nb3InSi3(SO8)3,1.6414