formula,band_gap (MP)
Cs2Pd3S4,1.3815
Ba4LiCu(CO5)2,1.3816
Na2Ti8Si5S7O48,1.3817
TmTlS2,1.3817000000000004
MgAlCrS4,1.3818
Ag2PbO2,1.3818
Na5Mn3F14,1.3818
MgHg4(MoO4)2,1.382
Sm2MgS4,1.3820999999999994
Na2SrV2CoO8,1.3822
Sb3Au(XeF9)2,1.3822
MgFe(GeO3)2,1.3822
Mg(H3Cl)2,1.3822
SiPbN2,1.3823
MgV4(O2F)4,1.3824
Y(FeO2)2,1.3824999999999998
Li9Mn2Co5O16,1.3824999999999998
Tb2MgS4,1.3826
RbPr(ClO)4,1.3826999999999998
K3(NiO2)2,1.3828
Mo(PO4)2,1.3828
Hf2N2O,1.3828999999999994
CrN5Cl3,1.3829
CrPO5,1.3829000000000002
Li5MnO3F,1.383
Eu(BH4)2,1.3830999999999998
Ti3VO8,1.3830999999999998
CaGe(SO4)3,1.3832
C4SO2,1.3832
CSN2,1.3832000000000002
K2Mg(CoO2)2,1.3832999999999998
Mg30NiBiO32,1.3833000000000002
LiMo2(PO4)3,1.3834
LiFe2(BO3)2,1.3834999999999995
LiRhO2,1.3834999999999995
CsAuO,1.3835
Nd10Se14O,1.3835000000000002
YBi2IO4,1.3836000000000004
AsSe(IF2)3,1.3837
Zn3CdGa2(AgS4)2,1.3837000000000002
Cs4Ge(PSe3)4,1.3838
LiV3F10,1.3838
Na2Ti4Ga4Si3(S3O16)3,1.3838
Li3MnFeCo(PO4)3,1.3838999999999997
CsTmZnTe3,1.3838999999999997
V2CoO6,1.3839
LiSi,1.3839
MgZn2(FeO2)4,1.3839
Li4V3(OF2)4,1.384
K4Zr6FeBr18,1.3841
Li3MnV4O12,1.3841
Fe10OF19,1.3841
LiV3(OF3)2,1.3841
V10As2O35,1.3841
InHg6As4Cl7,1.3842
Sn2N2O,1.3842000000000008
Li9Mn2Co5O16,1.3843
MgCr4Hg4(H2O9)2,1.3843
LiAgF2,1.3844
SNClO4,1.3845
Co3B7IO13,1.3845
K6HgSe4,1.3845999999999998
LiMg6SiO8,1.3845999999999998
IrI3,1.3846999999999996
LiMnO,1.3847
TlBi(PSe3)2,1.3847
MgSc2V2O8,1.3847
ZnGeO3,1.3848999999999996
Ca4SiN4,1.3849
SbCl4F,1.385
Er2MgSe4,1.385
Te6Mo3WSe2,1.3851
Be2Te7Cl6,1.3852000000000002
GdCrTeO6,1.3853000000000004
Li9Mn2Co5O16,1.3854000000000002
Na2LaCuCl6,1.3857
Ce2H16S3O20,1.3858
Li9Mn2Co5O16,1.3859
Sb2Os(OF7)2,1.3859
AgAsPbS3,1.3859999999999997
Ca(CrS2)2,1.3860999999999994
Mn2CrPb2O9,1.3860999999999994
Cr2Fe3Co(PO4)6,1.3861
CrAg3ClO4,1.3861
Ba(CuO)2,1.3863
Li7Mn2(CoO4)3,1.3863000000000003
Rb4MgH12(SeO3)8,1.3864
LiFe4(BO3)4,1.3864
CsErZnTe3,1.3864999999999998
Ba4Ge2Pb(Se4Br)2,1.3865
Sr7TiN6,1.3865999999999996
MgFe4(OF)4,1.3865999999999998
Cs2VAgS4,1.3867
Sr2Bi2Se3O2,1.3867000000000005
CaY4(BiO3)4,1.3867000000000005
U3Ag6Mo5O27,1.3867000000000005
Na2MgTiSi(SO6)2,1.3868
Na6Sm4Ge4Se17,1.3868
SbS8N6Cl5,1.3868
TiAl(WO4)2,1.3868000000000005
Na3SbTe3,1.3868999999999998
Li6NCl3,1.3869000000000002
K3NaMo5Se2O23,1.387
Li6V3P8O29,1.3871
Zn2GeSe4,1.3873
Sr2MgCuMoO6,1.3873000000000002
Mn2ZnO4,1.3874
K2NaCrCl6,1.3875000000000002
Mg(Fe2O3)4,1.3875999999999995
Fe11O12,1.3876
Ba7Sn3Se13,1.3876
Mg2BiSbO6,1.3876
Na8Mg(FeO4)2,1.3877000000000002
Li3Fe4(BO3)4,1.3877000000000002
Mg(BiO2)2,1.3877999999999997
K2YAuF6,1.3878
Li3Fe4(BO3)4,1.3878
TiMn2O4,1.3879999999999997
Mg(BiO2)2,1.388
NaHg2IO2,1.388
Li2NbFe3O8,1.3881
LiFe2(BO3)2,1.3882
Li2TiV2O6,1.3883
SrV2(AsO5)2,1.3884
Cs8Mg(Sn2O3)4,1.3884
Gd3ReO8,1.3884000000000003
Bi6Br7,1.3885
Li5Mn2CoO8,1.3885
LiFe2(BO3)2,1.3885000000000003
K2AgSbS4,1.3885999999999998
Li2Fe3TeO8,1.3885999999999998
CdBiSe2Br,1.3885999999999998
ZrCrO3,1.3886000000000005
Li2CuPO4,1.3886000000000005
Na5Fe2P2(CO7)2,1.3887999999999998
Li3Fe4(BO3)4,1.3888000000000005
MnHO2,1.3888000000000005
Na8Ca3Si3Ge(SO8)3,1.3888000000000005
Zr11VO24,1.3888000000000005
Li2MgMn3O8,1.3888999999999998
GaSb3Pb4O13,1.3889999999999991
Na2MgV2(OF)4,1.3889999999999998
YCu(WO4)2,1.3889999999999998
Li6V3P8O29,1.3890000000000002
Ba4Sr2Nd2Co4O15,1.3891
Li3SbS3,1.3892999999999998
Li3V4F19,1.3893
Fe3(OF2)2,1.3893
Tb2Pt2O7,1.3893
Li3Fe4(BO3)4,1.3894000000000002
Cr2AsC10ClO10,1.3894000000000002
CdC4S2(NO)4,1.3895
LiFe2(BO3)2,1.3895
Na14Cd2O9,1.3896
LiFe2(BO3)2,1.3897
Li6TiFe5O12,1.3897
C9Cl,1.3897
V4O5F7,1.3897
Rb5Nd2W(NO3)11,1.3897000000000002
GaSi6BiH54C18(NCl)4,1.3898
Li5Fe8(BO3)8,1.3898
MgV4(FeO6)2,1.3899
Cr(AgO2)2,1.3899
Na6Y5Nb3Si6(SO8)6,1.3899999999999997
S6N5O4,1.39
LiLaNb2O7,1.39
SrMo5O8,1.3900000000000006
LiFeSiO4,1.3901
NbFeNi(O2F)2,1.3901
VCrO3,1.3901000000000003
Se,1.3902
Li4V3Cr3(SbO8)2,1.3902
Fe5O3F7,1.3902
ThN3F7,1.3903
LiFe2(BO3)2,1.3903
LiFe2(BO3)2,1.3904
LiTiFeO4,1.3904
Rb2AgRhF6,1.3904999999999998
KCaN,1.3904999999999998
Te4Mo3W(SeS)2,1.3905000000000003
LiMo2(PO4)3,1.3906000000000005
MgFe4(TeO6)2,1.3906999999999998
Ta2Se17Br12,1.3907
Sr10Mg2Fe3(MoO6)5,1.3907999999999996
LiFe2(BO3)2,1.3908
Cr5O12,1.3909
ZnNi9O10,1.3909000000000002
HoBi2IO4,1.3910999999999998
LiCo2OF3,1.3910999999999998
Cs2PbO3,1.3911
CsTlO,1.3911000000000002
Fe4O3F5,1.3912
LiFe2(BO3)2,1.3912000000000002
BaS3,1.3912999999999998
KAuCl4,1.3913
FeBi2Se2Cl3O7,1.3914
Gd2SeOF2,1.3914999999999995
UAg2(SeO4)2,1.3916
LiFe2(BO3)2,1.3917
LiCd2Cu,1.3917000000000002
CaMn(GeO3)2,1.3917000000000002
Li4Ti3Ni3(TeO8)2,1.3917000000000002
Li3MnO3,1.3918
Y4Mg(BiO3)4,1.3918
LiFe2(BO3)2,1.3918
K2Hg6S7,1.3918
Ba2Er2Zn8O13,1.392
Li8TiMn3(PO4)6,1.392
LiFe2(BO3)2,1.3921
Na3CaNbSi2SO12,1.3921
CaMg30SnO32,1.3921
Li3Fe8(BO3)8,1.3921
BaNa4O3,1.3922
LiB6C,1.3922
Fe6O5F7,1.3922
Cd3Si2Pb3O10,1.3925
ZnFe4CoO8,1.3926000000000005
Li5Mn2CoO8,1.3926000000000005
Ho2FeSbO7,1.3926999999999996
LiFe2(BO3)2,1.3926999999999998
Rb5Tc3S7,1.3927999999999998
Na4Ti2In2Si3(SO8)3,1.3928000000000005
Li3Fe8(BO3)8,1.3929000000000002
Ti4S8Br6O,1.393
Ba2MgVMoO6,1.3931
LiMn7(OF3)3,1.3932
LiFe8(BO3)8,1.3932999999999998
Li5SbS,1.3933
TaPb2N3,1.3933
Li3Fe8(BO3)8,1.3934
RbSnS4,1.3934000000000002
Fe3P8H26NO36,1.3934000000000002
Li4Cr3Fe3(SbO8)2,1.3934000000000002
Ba8Sb6S17,1.3935
Br2O,1.3935000000000002
LaFeMoO6,1.3935000000000004
BaDy2CoO5,1.3935000000000004
Na5Zn2Ge2P5SO24,1.3936
V(PO3)4,1.3937
MgV2Bi4O11,1.3937
Ca3Co2(Si2O7)2,1.3937
Fe(SbO2)2,1.3937999999999997
Nd2Mo2O7,1.3937999999999997
Te2Mo3Se7Br10,1.3938
KMn6As7O24,1.3939
Li3Fe8(BO3)8,1.394
Mg30MnSnO32,1.394000000000001
La3Sm(FeO3)4,1.3941
BaNaSbWO6,1.3942999999999994
MgTi4FeO10,1.3943
Y4Se3N2,1.3943000000000003
KNaH6PtC4N4O3,1.3944
Li4Co2OF7,1.3944
Al2ZnS4,1.3945
Dy3S3N,1.3945000000000003
LiSb(TeO4)3,1.3945999999999996
LiFe4(BO3)4,1.3945999999999998
Rb2PH4Se3O2,1.3946
LiFe4(BO3)4,1.3946999999999998
Li6V3P8O29,1.3947
YCuPbS3,1.3947000000000005
NbCu3(TeSe)2,1.3948999999999998
BaGaCu3Se4,1.3948999999999998
K6U4O15,1.3949000000000005
Ho2MgV2O7,1.3950999999999998
Ba3UIn2O9,1.3951999999999996
Nd7V(Se2O)4,1.3952
Li3Fe2(PO4)3,1.3953000000000002
La5TlS8,1.3953999999999995
FeH8N2F5,1.3954
KV3P4O17,1.3954
Na6Zn4Si3Sn4(S3O16)3,1.3955000000000002
MgV4O7F5,1.3957000000000002
Li9Nb7V12O48,1.3957000000000002
NaLiMn2Fe4(PO4)6,1.3958
NaP5,1.3958000000000004
TiFeSbO6,1.3958999999999993
Na5CoCO5,1.3959
NbO2F,1.3959
Ba3Dy2MoO9,1.3959000000000006
Na18Mg4Nb20Si27(SO16)9,1.3961
LiVCr(P2O7)2,1.3961
LiFe8(BO3)8,1.3962
MgMn(GeO3)2,1.3963
SbIrS,1.3963
CaTiV(PO4)3,1.3963
Er3Fe5O12,1.3963
AgSe3I,1.3964
Ca4Tl2CO9,1.3965
Li2AsAu,1.3965000000000003
Dy4Te3S4,1.3965999999999994
NdTi2CdO6F,1.3965999999999998
Sr2PbO4,1.3966000000000005
Dy(CuS)3,1.3966000000000005
Na4ZnSi2SnSO12,1.3967
Na6MgV2O8,1.3967
Sb4Se3SI4,1.3967
Be2AgPt,1.3967999999999998
Li2FeO2F,1.3967999999999998
MgV4ZnO10,1.3968
Li6V3P8O29,1.3968
ZnHgAsHO5,1.3969
MgMnV2O6,1.3969
Li3Fe8(BO3)8,1.3969999999999998
Zn2CoCu,1.3969999999999998
Cs2RbInI6,1.3972
LaReN3,1.3972999999999995
CdBi8(Cl5O4)2,1.3976000000000002
LiMn2CoO6,1.3976000000000002
Li4Ti2Fe3Sn3O16,1.3977
Ba(LuSe2)2,1.3977
CsHfMg6O7,1.3977999999999997
LiCoSiO4,1.3978
Na2MnFeF7,1.3979
LiVCr(P2O7)2,1.3979
Li2TiFeO4,1.3979000000000004
Rb3LiTbV2O8,1.398
KCrF6,1.398
K3TlBr6,1.3981
PBr,1.3982
MgMnO2,1.3982
LiCo2OF3,1.3983
Se2SN2Cl,1.3983
Bi2Se2Cl7,1.3983000000000003
SrMg6SnO8,1.3983999999999996
Sb2MoO6,1.3984
LuBi2BrO4,1.3984000000000003
Sr3Li3Cu3(PO4)4,1.3985
VP2O7,1.3985000000000003
K4Ge(PSe3)4,1.3986
La3BeSbS7,1.3986
Ba2Ge(Sb2S5)2,1.3986000000000005
LiCaP,1.3986999999999998
K3Bi(AsSe2)6,1.3986999999999998
LiMoPO5,1.3988
YCrO3,1.3989000000000005
TiMn5O12,1.3989999999999998
LiCu2P3(HO5)2,1.3990000000000005
Na10Zn2Si7Ge6S5O48,1.3990999999999998
Mg30ZnCoO32,1.3990999999999998
MgV2(OF2)2,1.3992
MgCr4O12,1.3993
DyCu(WO4)2,1.3993000000000002
Rb3Ta2S11,1.3994
MgV2O4,1.3994000000000004
PRhS,1.3994000000000009
Li3BiO4,1.3994999999999995
CaSnS3,1.3995000000000002
Tb2VFeO6,1.3995000000000006
K8MgCo2(Mo4O15)2,1.3996
V(PO3)4,1.3998
K2UC2S2NO8,1.3998
MgV2(BiO4)2,1.3998000000000004
Zn(GaSe2)2,1.4000999999999997
Ta2Si3Sn2(SO8)3,1.4001
NbO2F,1.4001
Cs2TlInI6,1.4001
Li2Fe3SbO8,1.4002
Mg(SbO2)4,1.4002
Sb2SeI2F11,1.4002
Ga7Sb7(Te4Cl13)2,1.4002
V4(OF3)3,1.4002
Na6MnS4,1.4003
WO2,1.4003
Ti2Nb2Si3(SO8)3,1.4004
NaFe9Si6B3H2O31,1.4005
Gd2MgV2O8,1.4005
Ba2SmMgSbO6,1.4005999999999998
Te7RhCl7,1.4005999999999998
RbMg6SiO8,1.4006999999999996
Ba5(SiN3)2,1.4009
Li4V(TeO4)3,1.4009
Na8Mg3Si3Ge(SO8)3,1.4009999999999998
Na9NbZn11(SO4)18,1.4010999999999998
BaCl2O11,1.4012
FeHO2,1.4013000000000002
K3MoI6,1.4013000000000002
V(HO)2,1.4013000000000004
ReH3O5,1.4014
Ba5(SnN3)2,1.4014000000000002
Li24Mn11CrO36,1.24
MgV2(OF3)2,1.24
Li6FeN4,1.2400999999999998
Ba2MgNiMoO6,1.2401
MgSc2V2O7,1.2401
V4(OF3)3,1.2401
Li32Mn13Cr3O48,1.2401000000000002
Rb2Ag(AsSe2)3,1.2402
K8NbAs5Pb,1.2402000000000002
MgV4(OF2)4,1.2403
MgTe2O7,1.2403000000000002
MgV(TeO3)4,1.2403000000000004
ZnP14Pb,1.2403999999999995
MgCo2(SiO3)4,1.2403999999999995
K2Na4Co2O5,1.2404
AlCuSeS,1.2404000000000002
Na2In8SiS11O48,1.2404000000000002
Sr2La14Mg4(Ga4O15)3,1.2405999999999997
BaV4O7,1.2406
K2ScCuF6,1.2408
Li3V3P8O29,1.2409
Sr(CuO)2,1.2409999999999997
LiMn(PO3)4,1.2411
RbAg4I5,1.2412
DyCu(WO4)2,1.2412
Mn2As2O7,1.2412999999999998
AlCu3PbSe4,1.2412999999999998
TiNbFeO6,1.2412999999999998
Na6Ca8Nb16Si15(S7O48)3,1.2413
KZr6MnCl14,1.2413000000000003
TiZnSb(PO4)3,1.2415000000000005
K2Hg(PSe3)2,1.2416
MgZn2(FeO2)4,1.2416
Na2CoP2O7,1.2416
Li5V3P8O29,1.2416999999999998
Li9Mn2Co5O16,1.2416999999999998
VNCl4,1.2419
Na2CuSbS3,1.2419000000000002
SbXe2OF15,1.2419000000000002
Ca4TeN4,1.2419000000000002
K2NaAlP2,1.242
MgCr2(BiO4)2,1.242
K2P2PdS6,1.2420999999999998
La6S4N3Cl,1.2422000000000004
KMgH3,1.2423000000000002
FePO4,1.2423000000000002
LaFeO3,1.2424
MnP2O7,1.2424
K3CrO4,1.2424
Fe9Si6O25,1.2425000000000002
Na8Zr3Ti3Mn2Si8(O17F)2,1.2426
Li2Mn2NiO6,1.2426
Sn5(S2Cl)2,1.2428
ReNCl4O3,1.2429
Ba9(TaN6)2,1.2429
NaIn2Bi,1.243
KCuO,1.243
K2GaAs2,1.243
Hg3AsSe4Br,1.2432
Na2SnTeO6,1.2432999999999996
La3GaS5O,1.2433999999999994
LiVF4,1.2433999999999998
K2PbO3,1.2434
La6Ti2S8O5,1.2435
Ca(CuO)2,1.2435
Y(FeO2)3,1.2435999999999998
Cs2K2Cd3O5,1.2436
CsTa(CuTe2)2,1.2436999999999996
U(MoO6)2,1.2438
Gd4(SiS4)3,1.2438000000000002
Na10Ca2Si7Ge6S5O48,1.2438000000000002
Rb2VCuS4,1.2439
Cs2InGaBr6,1.244
LiVTe2WO12,1.2441
K4Sb2O3,1.2442
K3W2Cl9,1.2444
Li3V3P8O29,1.2444
CsMnInTe3,1.2444000000000002
Li10Cr3Fe3(NiO8)2,1.2444000000000002
KRbO,1.2445
Pb10SO13F2,1.2446000000000002
MgCoO2,1.2447
K8NbSnAs5,1.2448
Gd2MgS4,1.2449999999999997
Gd3CuSnS7,1.2451
Mg30CdCoO32,1.2451
LiMnAlO4,1.2451000000000003
Ba2Na2U(S2O)2,1.2453
Na2Ca3Sn(SO4)6,1.2453
Lu2MgSe4,1.2453000000000003
AgHgAsS3,1.2453000000000003
Pd(PbCl3)2,1.2453000000000003
Fe21HO32,1.2453999999999996
Te2MoWSeS,1.2454
Cd(HO)2,1.2454999999999998
ZnCrSF5,1.2454999999999998
Li3V3P8O29,1.2455
TaMnO4,1.2455000000000005
Ba3Ga3P5,1.2456
V(CO3)2,1.2456
Fe5O3F7,1.2456
LiCr(PO4)2,1.2457
La5Sm3VCr7O24,1.2457999999999991
ZnCrF6,1.2459
K2OsNCl5,1.2462
AlSbO3,1.2462
Na2CaSn3P4(SO12)2,1.2463999999999995
Li3V3P8O29,1.2464000000000002
LiMnAlO4,1.2465000000000002
Rb4Mg(FeO2)4,1.2465000000000002
Cd(NO5)2,1.2465000000000002
Li2Mn2CrO6,1.2466
Li5V3P8O29,1.2467
Ba3VO5,1.2467
Y2InN3,1.2467999999999997
MgV4(O2F)4,1.247
ZrPbS3,1.2470999999999997
CsTm2Cu3Se5,1.2472999999999996
CaFe5O7,1.2474999999999996
Zn2Sn3O8,1.2476000000000005
Tb2MgSe4,1.2477
TaVO4,1.2477999999999998
Li9Mn2Co5O16,1.2477999999999998
LiNb(TeO4)3,1.2479999999999998
Bi2(PSe3)3,1.2479999999999998
KGaTe2,1.2481
MgV5O12,1.2481
Ca3(AlP2)2,1.2481999999999998
Li9Mn2Co5O16,1.2481999999999998
MgV4O8,1.2482000000000002
Co(PO3)3,1.2483
MgAs4(PO4)4,1.2483
Ba2CaMnV2F14,1.2483
Na6Ca4Si3Sn4(S3O16)3,1.2485000000000002
K2GaP2,1.2486
LiVO2,1.2487
Li3Fe8(BO3)8,1.2487
Na2MgSiSn(SO6)2,1.2487
Mn2As2O7,1.2487999999999997
Li7Mn5O12,1.2487999999999997
LiMoPO5,1.2488
Na2Zn2O3,1.2488
TeO3,1.2489
PWO5,1.2491
AgBiO2,1.2491000000000003
LiFe8(OF)8,1.2492
Li9Mn2Co5O16,1.2492
K2MgMn3V2(HO5)2,1.2494
Sn4SI6,1.2495000000000005
K2V8O21,1.2496
Li24Ti7Cr5O36,1.2496
KUVO6,1.2496999999999998
Te2Mo3W(Se2S)2,1.2497999999999996
LiV3(O2F)2,1.2498
Hf(Se2Cl3)2,1.25
MgFe6O7F5,1.2500000000000002
NbTlBr4O,1.2501
ScMoN3,1.2502000000000002
Ho2V2O7,1.2503000000000002
AlSiTe3,1.2504
Na2PbO3,1.2504
LiV2O3F,1.2504999999999995
Mo2WS6,1.2505
ScCdCu3Se4,1.2505000000000002
MgV4(PO5)4,1.251
LiCoSbO4,1.2510999999999997
MnAlO3,1.2511
Na10Mg6Si3Ge2(S3O16)3,1.2511
VAg2O3F,1.2511
Na6Ca4Nb20Si21(S5O48)3,1.2512
TeWO6,1.2512000000000003
AlNi(WO4)2,1.2513999999999994
Rb3Nd(Cl3O)2,1.2514
LiMn2V4O8,1.2514000000000003
CaW2O5,1.2515000000000005
LiV6O11F,1.2515999999999998
Li2TiCoO4,1.2516999999999996
La5B4N9,1.2516999999999996
Li2SeO4,1.2517
Li2CrSiO4,1.2517
Na3La8Ti9Mn3O36,1.2517000000000005
FeH12C4NCl4,1.2518
MgMo2(PO5)2,1.2519
K4MgZn4H16(Br3O2)4,1.2519
V3(O2F)2,1.2519999999999998
Ca(MgAs)2,1.2519999999999998
Rb2PtS2,1.2521
Zr6B(Cl3O4)6,1.2521
VPO5,1.2521000000000002
LiVCrO4,1.2521999999999998
CsReS2,1.2522000000000002
KEu2I5,1.2522000000000002
NdEu2TaO6,1.2522000000000002
Ca2Mn3O8,1.2523
BaHfS3,1.2523999999999995
Na3Np(HO3)2,1.2524
DyTlSe2,1.2524999999999995
CaLaVCrO6,1.2525000000000004
K2RbTbMgV2O8,1.2526000000000002
Na2Zr4Ti4Si5S7O48,1.2527
MgV4(OF)6,1.2528
Li5VCr3O8,1.2528000000000006
Er2HfS5,1.2528999999999997
BaTe3H15(CN)3,1.2529
InSiN2,1.2529000000000003
Ba2Y2Mg(Fe2O5)2,1.2529999999999997
FeSb3Pb4O13,1.253
Sr3Bi3N5,1.2530999999999994
Cs10P4PdSe16,1.2531000000000003
MgCd2(BiO3)2,1.2532
MgMo3S4,1.2532999999999994
SrAgSF,1.2533
Li9Mn2Co5O16,1.2533
K3Ag3As2,1.2533
MgCo2(GeO3)4,1.2533999999999998
CdO2,1.2535000000000005
Li5Fe2P2(CO7)2,1.2535999999999998
CsRbO,1.2535999999999998
MgCr2Fe3Ni(PO4)6,1.2536999999999998
MgMn4(Si4O11)2,1.2536999999999998
Mn2V3O12,1.2537
BaHfN2,1.2537000000000005
Li3Fe2(CO3)4,1.2538
LiSc4(FeO3)4,1.2540000000000004
PrSF,1.2541000000000002
Li32Mn13Cr3O48,1.2541000000000002
CsSm2Cu3Se5,1.2541000000000002
LiVCrP2(HO5)2,1.2541999999999998
In5(BiS4)3,1.2542
BaSn3S4,1.2542
AlCuS2,1.2542999999999995
LiVOF3,1.2543
Mg30CuBiO32,1.2543999999999995
CoO2,1.2544
GaN5O14,1.2545
MgMn2V2(BiO5)2,1.2545000000000006
Te2MoWSe2,1.2546
CaCO3,1.2546000000000004
Rb7NaGe8,1.2547
MgV4(O2F)4,1.2547
Li2VSiO4,1.255
Mn2Zn3(SiO4)3,1.255
Sr4Li4Nb5FeO20,1.255
Os(SeCl6)2,1.2551
VOF,1.2552
Li5Mn2CoO8,1.2552999999999996
Al(TeCl2)2,1.2553
K3Np(HO3)2,1.2553
Fe5Sn(PO4)6,1.2554999999999998
Sr2NbCoO6,1.2556000000000005
WS2,1.2557
Cs2NaInH6,1.2557999999999998
BaCaCeNiO6,1.2559999999999998
VCl2,1.2559999999999998
Ca(GeN)2,1.2561
NaAl3NiCl12,1.2562
CsLu2Cu3Se5,1.2562000000000002
Na7Zn2SiGe2P5O24,1.2563
K2Co(SeO3)2,1.2563999999999995
WS9Cl4,1.2564
AlInN2,1.2564000000000002
V3FeO8,1.2565
MgV4O5F7,1.2568
KMgBiO3,1.2568
KIn5S8,1.2568
K4I2O,1.2568
LiFeF6,1.2569
Na2Mg2Ti6Si3(S3O16)3,1.2569
Te2W,1.2569999999999997
MgV4O7F5,1.257
Na2GdMnAs2O9,1.257
Te2N2O7,1.2571
CaSn2S5,1.2572
Er(CuS)3,1.2572
Hg3Te2IBr,1.2572
AgAu(IO3)4,1.2573
Cr2HgO4,1.2575000000000005
Si2H2O3,1.2575999999999996
Li2Ti2V3O10,1.2576999999999998
NaAgO,1.2578
Sr2SbN3,1.2579000000000002
VH10N2(OF2)2,1.2580999999999998
Li5BiS4,1.2581000000000002
LaCrTeO6,1.2581000000000009
Li3VF5,1.2582
Bi3(TeCl5)2,1.2582
MgFe6(OF)6,1.2582
PrCrTeO6,1.2584
RhBr3,1.2584
CsTlCl3,1.2584
CaSm4(Mo2O7)2,1.2584999999999995
Li3Ni2SbO6,1.2584999999999995
LiAl2BrO6,1.2585000000000002
P4Ru,1.2586000000000013
TbSF,1.2587000000000002
Rb6Co2O7,1.2588
Fe5OF11,1.2588
KBaPSe4,1.2588
LiFe2(BO3)2,1.2591
Bi2TeO6,1.2592999999999996
Na6ZnSi4Ge3(SO12)2,1.2593
MgTi3V5O16,1.2593
Er2MgSe4,1.2593
NaMnO2,1.2593
MgV2(PO5)2,1.2593
Tl2Br3,1.2594
Li3V3P8O29,1.2594
Fe3(OF2)2,1.2595
Na6NiO4,1.2599
Li4Ti(TeO4)3,1.2599
Li9Mn2Co5O16,1.2599999999999998
LiCo6(OF5)2,1.26
Mg14MnVO16,1.2600999999999996
BaCaCrSbO6,1.2601
Sr5Hf2N6,1.2601
LiV2(PO4)3,1.2601999999999998
Na8Ta7VO24,1.2602000000000002
Ba2PCl,1.2602000000000002
MgV6(HO3)6,1.2603
AgHgSBr,1.2604
Li7Mn2(CoO4)3,1.2604000000000002
Rb2PbCl6,1.2605
BaSb4O7,1.2605
MgV3FeO8,1.2605000000000002
Ca(LaTe2)2,1.2605000000000004
TiFe(BiO3)2,1.2605999999999995
NaLiCu(PO3)3,1.2606000000000002
Mg4GeN4,1.2606000000000002
LiP3N2O11,1.2607
NaFePO4,1.2607000000000004
YTlSe2,1.2608
LiNb(TeO4)3,1.2609000000000004
La2Fe2O5,1.2609999999999992
Bi4(SeS)3,1.2610999999999994
Ba9(NbN6)2,1.2611
Na10Y4Si7Sn4S5O48,1.2611
NaGa(H2N)4,1.2611
Er2ZrS5,1.2611999999999997
LiHfMg6O7,1.2611999999999997
LiMnCO3F2,1.2612
MgV28O70,1.2612
Ho7C2I12N,1.2613
ZnCr3P3O13,1.2613
CsSiTe3,1.2613
DyZnPO,1.2613000000000003
Zn3Si3(MoO6)2,1.2614
CoB4O7,1.2615999999999996
MgV3(OF)4,1.2616
Na6Ta4Zn8Si3(S5O24)3,1.2616000000000005
Th4Mg(B2O5)4,1.2617000000000005
Te3Mo2S,1.2617000000000005
K2NaTlO3,1.2618999999999998
LiV2(CO3)4,1.2619
Na2Y4Ti4Si3(S3O16)3,1.262
Ge7N2O15,1.262
KLiCoO2,1.262
BaMg(CO2)2,1.2620999999999998
PrTlSe2,1.2621000000000002
MgNb2V2O10,1.2622
MgMnCoO4,1.2622000000000004
KSmTe2,1.2623000000000002
Ce5Gd2O13,1.2624000000000004
Li2TiV3O8,1.2624999999999995
Hf(Te2Cl3)2,1.2626
Cs2KInI6,1.2626
Cd3(CuP5)2,1.2626
Li7Mn2(CoO4)3,1.2626
Na6P4W,1.2626000000000002
BaFe3Si4SO11,1.2626999999999995
TiVO4,1.2628
Cr3(P2O7)2,1.263
Li2Mn3NiO8,1.263
Pr6S4BrN3,1.2631
Co(SiP)3,1.2632000000000003
NaFe11O17,1.2633
BaGdInWO6,1.2633000000000003
RbIn5S8,1.2633000000000003
Rb2TcCl6,1.2635
Sm2VFeO6,1.2635000000000003
GaAg(GeSe3)2,1.2636
LiVPO4,1.2636000000000005
Na2Ca2Ti2SiS5O24,1.2636000000000005
MgV5O12,1.2637
Nb(H2Se)2,1.2637
TeINO10,1.2637999999999998
K4P21I,1.2638000000000005
FeTeCl7,1.2641
K2Li3CoO4,1.2641
Ba2MgZrTiO6,1.2641999999999998
Cs4MgMn4H16(Cl3O2)4,1.2641999999999998
C61O2,1.2642000000000002
MgMnO2,1.2642000000000009
Ho2ZrS5,1.2642000000000009
Na4CoO4,1.2643
Li3Co(OF)2,1.2644
MgV4O5F7,1.2644
Li3V3P8O29,1.2644000000000002
Ta3Br7,1.2644000000000002
H18RuN5(ClO)2,1.2644000000000002
Na3MnO3,1.2644999999999995
MgCr2(WO4)2,1.2645
LiVCrP2(O4F)2,1.2648
KNdTe2,1.2648
Sr3ZnCoO6,1.2648
Mo2(PO4)3,1.2649
BaYCu3Se4,1.2651
Rb4Zr6CCl18,1.2652
V(CO3)2,1.2652
Rb2P2Pd,1.2653
Ba2MnMoO6,1.2653999999999996
NdBi2IO4,1.2653999999999996
Na3VAsCO7,1.2654999999999994
Ca4P2O,1.2655000000000003
MgFe4(OF)4,1.2656
KRb2InI6,1.2656
Na2CaSi2Ge3(SO6)4,1.2657999999999998
Li2MnOF3,1.2659
MnGa2P3H4NO14,1.2659
Os7C19SO19,1.2659
MgV4O7F5,1.266
H5IO6,1.266
Na2Sc4Si3Ge4(S3O16)3,1.2660000000000002
CrAuO2,1.2660000000000005
Sr2La14Mg4(Fe4O15)3,1.2660999999999998
MgFe6(OF)6,1.2661
CoPO4,1.2662
Te6MoW3S2,1.2663000000000002
Cs4Mn3O6,1.2663000000000002
Ce5Dy2O13,1.2663000000000002
Li2MnOF3,1.2664
Na2V2O5,1.2664
Na18Ca8Ta4Si9(SO8)9,1.2664999999999995
AsS4N3,1.2666
MgV4As2O13,1.2666
Te2MoWSeS,1.2666000000000004
Ti3Mn5O16,1.2668
Na2MnO3,1.2668999999999997
CsAgSe4,1.2669
Pm2MgS4,1.2669
K2Nd2Mg(SO4)4,1.2669999999999997
LiMoP4O13,1.267
Ce(SeO3)2,1.2671
KMgSb,1.2672
ZnSnO2,1.2672
Li5Fe2P2(CO7)2,1.2674
K5BaTaP4,1.2675999999999998
MgTe3WO12,1.2675999999999998
Cs4Mg(WO4)2,1.2677
LiFeCl4,1.2679
Na3Ca3GePS5O24,1.2679
Li2Co2H24C6(N4O5)3,1.2679999999999998
SrCeN2,1.2679999999999998
Ba2MgFeMoO6,1.2680999999999996
MgZn2(FeO2)4,1.2681999999999998
CsNaGe2,1.2682
SrWN3,1.2682000000000002
LiFe8(BO3)8,1.2682999999999998
LiSnP2O7,1.2683
MgFe4(NiO4)2,1.2683999999999995
NbH2N2OF5,1.2684
Cs2LiMoBr6,1.2684000000000002
MgZn2(FeO2)4,1.2684000000000002
MgFe6(OF)6,1.2685
MgV2(OF)3,1.2685000000000002
Li4Fe7O12,1.2685999999999995
Na5Mn3F14,1.2687
Cs2MnCl4,1.2688
Ag5P(S2Cl)2,1.2689
Yb2PbSe4,1.2689
CsTlS2,1.269
MgV4O8,1.269
HoFeGe2O7,1.2691
Li3V2(O2F)2,1.2691
LiCuF2,1.2691
MgSb4(WO6)2,1.2693
BaAgSeF,1.2693
LiVPO5,1.2693
Li2Nb6NiO18,1.2693000000000003
Ca5(SnN3)2,1.2693999999999996
Ti3V5O16,1.2694
ScFeO3,1.2694
Li9Mn2Co5O16,1.2695
V(GeO3)2,1.2695
Rb2LiMoBr6,1.2695
MoPO5,1.2695
VOF,1.2696999999999994
Li5V3P8O29,1.2696999999999998
Cs2PtC2,1.2698
LiNbVO4,1.2698
LaHfMg14O16,1.2698999999999998
Ta2CrNO5,1.2699000000000005
AlV3Se2ClO8,1.2699000000000005
Cs2SiP2,1.2699000000000005
ZrCrO4,1.27
K2FeO4,1.27
LaTiNO2,1.2700000000000005
Na2WO6,1.2701
LiAgF2,1.2702
AgBrO4,1.2702
TlF3,1.2702
SrLiLa3MnO8,1.2702
K2MgFe4O7,1.2704
CdBiSe2I,1.2705000000000002