formula,band_gap (MP)
BaCaCeHfO6,2.1365000000000003
Li2NbV(PO5)2,2.1366
NaCoSO4F,2.1368
Na2CaNb(PO4)3,2.1369
Tb2SeO2,2.1369
Li2Fe(PO3)5,2.137
ZnAs2C6S12N12(OF2)6,2.137
Li2Cr3WO8,2.137
Mg3Mn2(Si2O7)2,2.1371
Li6PS5Cl,2.1375
Li3MnV(P2O7)2,2.1375
LiFeBO3,2.1375
Na2Co5Mo4(ClO4)4,2.1376
LiNiPO4,2.1377
KHg5Br11,2.1377
NiP2H21C7Cl,2.1377
Na3GaSi3Sn3(SO8)3,2.1377
CaTiO3,2.1378
Na6Sc2Nb6Si9(SO16)3,2.1379
Li2AlVO4,2.1379
LiSbO3,2.137900000000001
MoBr2,2.138
Ta6Mn2Zn3O20,2.1380000000000003
Li4Co7(OF7)2,2.1384
Ba5Ce4ZrO15,2.1384000000000003
LiCr(Si2O5)2,2.1385
SrThBr6,2.1387
ZrMn2Ag4(MoO4)6,2.1388
KFeO2,2.1388000000000003
CdGe(BiO3)2,2.1388000000000003
Li3FeSi2O7,2.1389
BaPr2PdO5,2.1389
CsMgMnP3HO10,2.1389
NaB6H8S3O7,2.1389
HPb3ClO3,2.139
Na3MgGe3P5SO24,2.139
KV(SO4)2,2.1392
NaAg(NO2)2,2.1392
HCSN,2.1392
VAs2H4O9,2.1392
Hf(MoO4)2,2.1393
BaSrCeTiO6,2.1393000000000004
LaPb6ClO7,2.1393000000000004
MgCr2O4,2.1395
RbAl6H20N5F24,2.1396
Na30Ca8Ta16Si27(SO16)9,2.1396
CsSmS2,2.1397
Mg(B6C)2,2.1397000000000004
BaDy2NiO5,2.1398
TlCd(NO2)3,2.1399
AgH10Rh(N3O5)2,2.1401
BaCaCeZrO6,2.1401
Na3YTiSi(PO6)2,2.1402
Ba3Ho2MoO9,2.1402
TeMoWSe2S,2.1405
Mg6CoSnO8,2.1406
Tb2SeO2,2.1407
CaBiAsO5,2.1407000000000003
V2Bi8O17,2.1408
Nb4AgBi5O18,2.1408
CN2,2.1408000000000005
NaVP2O7,2.141
RbUSO6F,2.141
CsVSO6,2.141
UC2O7,2.1411
YMgCo(WO4)2,2.1411
K4Re6TeC6S7N6,2.1411
MgSb2P2O9,2.1411999999999995
Na5MgSiGe3P5O24,2.1412
H8S5N2,2.1413
BaLiCrF6,2.1413
LiZr2N3,2.1416
Mg6CoCO8,2.1416999999999997
SrNbCrSnO6,2.1416999999999997
LaH6Au3C6(N2O)3,2.1417
RbFeP2O7,2.1417
Li6Mn11(OF12)2,2.1418
CsK2AlI6,2.1419
TcC4IO4,2.1419
Ta3NO6,2.1419
CsTbS2,2.1420000000000003
Li2MnP2O7,2.1420000000000003
Ba3Nb6(Si2O13)2,2.1421
NiB4O7,2.1423
MgZn2(FeO3)2,2.1423
K3NaUC3O11,2.1423
CaZn3Se4,2.1424
K2U3H4(O3F4)2,2.1424
Li2AlFeO4,2.1424000000000003
CsDyS2,2.1424000000000003
Sm2MgS4,2.142499999999999
Na8MgSi4Ge3(PO12)2,2.1425
Bi3O4F,2.1425
SmBS3,2.1425
Mg4(BiO2)9,2.1425
P2S7,2.1425
Li3Fe3(PO4)4,2.1425
Na4ZnGe3(PO4)6,2.1426
NaCaMg3Fe6(PO4)9,2.1426
Na7CaSi3Sn3(PO8)3,2.1426000000000003
YTa3O9,2.1427
LiVP2(HO4)2,2.1427
TlPbI3,2.1427000000000005
TeHO3,2.1427000000000005
Hg2Mo5O16,2.1428
K2H3IrNCl5,2.1428000000000003
Sr2PrBiO6,2.1429
NaVBP2H3O10,2.1429
BaSrCeTiO6,2.1429
BC10XeF17,2.143
Li7Bi(BO4)2,2.143
SrNdCrO4,2.1432
SrPSe3,2.1432
Na9Nb4Zn8P9(SO8)9,2.1434
Ca(TbS2)2,2.1434000000000006
Na3Sb3(PO7)2,2.1435
Na10Sc2Nb6Si11SO48,2.1436
SbCNCl4O,2.1439
CsErS2,2.1441
TlMo3Br7,2.1441
Te3As2(SF4)3,2.1442
NaSrCeNbO6,2.1442
ErPS4,2.1442000000000005
Ba2CeSnO6,2.1444
Al15Fe9O32,2.1445000000000007
SiP4N2O13,2.1446
Na4UO5,2.1446
CsTaN2,2.1446
Tl3V5O14,2.1447
SrLaI5,2.1447
MnTeC5O6F5,2.1447000000000003
Na2Nd2PtO6,2.1448000000000005
Rb2ScAgI6,2.1449
ZrFeP3PbO12,2.1449
V3Zn2FeO11,2.145
Na12Ta2Zn10Si3(S5O24)3,2.1450000000000005
AlCuBr4,2.1451
Li3SbS4,2.1452
TlI,2.1452
LiMnPO4,2.1454000000000004
Ca(LaS2)2,2.1455
Na9Ca8Nb4P9(SO8)9,2.1455
Pb2OF2,2.1457999999999995
TlSb(PS3)2,2.1459
Co3B7BrO13,2.146
US2O9,2.1460000000000004
MgZr2H10(S3O14)2,2.1461
Si3(MoO6)2,2.1461
Ca3ZnGe5O14,2.1462
KLaDyNbO6,2.1462000000000003
K2CrPCO7,2.1462000000000003
CaNiF6,2.1462000000000003
Na6Ti7Zn(PO4)12,2.1464
Rb3PdF5,2.1466
KRb2GaBr6,2.1466000000000003
K4MgZn4H16(Br3O2)4,2.1467
YPtF7,2.1468
Ta3AlSi3(SO8)3,2.1468
Fe2H6(SO5)3,2.1469
Na6Nb6Al2Si9(SO16)3,2.147
Na10Mg4Ga4Si3(S3O16)3,2.147
CaGe2WO6,2.147
MnFeH4NF6,2.147
Rb2TiCl6,2.1471
Ca3Nb2CoO9,2.1471000000000005
Nb2Se4O13,2.1472
Na6Y4In4Si3(S3O16)3,2.1472
Na3Mg2Nb2P5SO24,2.1472
CeF4,2.1473
KNa2LiTi2MnFe(SiO3)8,2.1473
Li2MnF6,2.1473
Rb6NaU3Si4O20F,2.1474
Zn3(AsO4)2,2.1475
CsCoH24(SO10)2,2.1475
RbLiMg30O31,2.1476
H7C2N7O6,2.1478
Ca3UO6,2.1479
Dy2SeO2,2.1479
ScBiO3,2.1479
Sm3Sc2(FeO4)3,2.1481
CrSbF10,2.1481
Cs2PtCl4,2.1483
Yb(DyS2)2,2.1483000000000003
LiFe2(PO4)2,2.1484
KGdTiO4,2.1484000000000005
Ca3Si4(SnO7)2,2.1484999999999994
Cu2H6C3N4O,2.1485
Na3Nb4Zn8P3(S5O24)3,2.1486
KMnF4,2.1486
In5Br7,2.1487
K5Na3Ta8O24,2.1488
CaLaI5,2.1489000000000003
ScTiP(SO6)2,2.149
Ho2MoO6,2.1491
Ba4CrGa2(S3F2)2,2.1491
Ba2Fe3P6HO22,2.1492
Na3ScSi2SnSO12,2.1492
NaNdZrTiO6,2.1492000000000004
MgTa2(FeO4)2,2.1493
Mg14CdCoO16,2.1493
LiFe2C2O7,2.1494
LiV2O5F,2.1494
TlGaO2,2.1494
LiMg6WO8,2.1495999999999995
Sr(InS2)2,2.1496
CsNdS2,2.1496
NaFe(TeO3)2,2.1497
NaAlSe2,2.1497999999999995
CsCuPS3,2.1498
NiH12C4(N2O3)2,2.1499
MgFe4(PO4)4,2.1499
CrHSe3O8,2.1499
Na2La3NbP4(SO12)2,2.15
Sr2CoGe2O7,2.1500000000000004
K3H8RhC4(ClO6)2,2.1501
K2Li4UO6,2.1501
ReBi9O17,2.1502000000000003
TlSbO3,2.1502000000000003
Cs3U2PO10,2.1503
Cs2MoS3O,2.1503
RbNbN2,2.1504
Li6Br3N,2.1507
SeBr4,2.1508000000000003
Y3Ga(FeO3)4,2.1509
Nd2SeO2,2.1511
NaSb(PS3)2,2.1511
Sr3YRhO6,2.1512
Na12Nb2Zn4Si3(PO6)6,2.1512
LiSbP(OF3)2,2.1513
ZnSn3(P2O7)2,2.1513
PH3CS3,2.1513
LiVOF3,2.1513
Li4Fe2(PO4)3,2.1514
MgTi2Nb2(PbO3)5,2.1514999999999995
Na9Nb4Zn2Si6(PO12)3,2.1515
Na10Nb4Al4Si9(SO16)3,2.1516
Ni(N3O2)2,2.1516
Na8NbAl3Si4(PO12)2,2.1516
Na2YSn(PO4)3,2.1517
Li5CuSO2,2.1517
Ho2SeO2,2.1517000000000004
MnInFe(CO)9,2.1518
Ba2CaMnFe2F14,2.1519000000000004
Tl4V5CdClO15,2.152
Cs2UP2O9,2.152
Na4Mg(FeO3)2,2.152
CeZr6O14,2.152
KC(NO2)3,2.1521
SrCeO3,2.1521000000000003
LiNO2,2.1521000000000003
LiFe2P5O16,2.1522
Na9Sr2Nd9Ti20O60,2.1522
BSbPbS4,2.1522
Na4UC3O11,2.1523000000000003
SrMg3O4,2.1528
MoPO5,2.1529
SnF4,2.1529
Al2ZnSe4,2.1529
Na9Mg4Nb8Si3(P5O24)3,2.1529000000000003
Na6CaSi2Ge3(PO6)4,2.153
BaLiBS3,2.1531
Co3Bi(CO)9,2.1531
MgZn2(WO4)2,2.1532
TlV2AgO6,2.1533
Bi2CO5,2.1533000000000007
Ag(W3Br7)2,2.1534
CsGeCl3,2.1535
KVSO6,2.1535
NaPrZrTiO6,2.1536000000000004
Na2NbIn3P4(SO12)2,2.1537
Ba3(PS4)2,2.1538
Cs2PAuS4,2.1538000000000004
Rb10NaAl11Si13O48,2.1539
BaCaLaBiO6,2.154
OsC3IO3,2.154
Na2MgSnP2SO12,2.154
CsDyZnSe3,2.1541
Mg(BiO2)2,2.154100000000001
LiFeSnO4,2.1541999999999994
Si2H2O3,2.1542
DyP2H9O10,2.1542
Re(TeCl2)2,2.1542000000000003
Na3VPCO7,2.1544
Ti(TlSe)4,2.1544
PrMoBrO4,2.1545
CuH6BrN2,2.1545
C8Cl3F2,2.1547
K2SnO3,2.1547
Li3V3(PO4)4,2.1547
BaHo2NiO5,2.1549
La2PbS4,2.1549
Na6Ca7Ge(SO4)12,2.155
Rb2Nb3Cl7O5,2.155
Na6Si2Se7,2.1551
V3OF11,2.1551
Na3ScI6,2.1552
Ga3C3N7,2.1556
Nd4InSbS9,2.1557
Li3Al(FeO3)2,2.1557000000000004
B5TeH5C,2.1558
Na4Bi2O5,2.1558999999999995
CsUVO6,2.1559
LiCr(PO3)3,2.156
Ba2Nb6Te2O21,2.1563
Na2FePCO7,2.1563
Li2FeGeO4,2.1565
PbO,2.1565
Na10Sc6Nb2Si7S5O48,2.1568
ZnCd4(GaS2)10,2.1568000000000005
Rb3ErO3,2.157
LiFe(PO3)4,2.157
Na4Ti3O8,2.157
Gd3NbO7,2.1570000000000005
Ba3UO6,2.1572
MgV2O6,2.1572
LiVOF4,2.1572
Hf2N2O,2.1572000000000005
CsTmS2,2.1573
KB6(HO)6,2.1574
BaEr2NiO5,2.1575
ZnO2,2.1576
Na6UH2(S2O9)2,2.1576
LiV(PO3)4,2.1576
MgMnV4O12,2.1577
Na2FePCO7,2.1577
ZrSO6,2.1577
BiPbO2F,2.1578
Sr2CaMoO6,2.1579
Li2Fe2SiO6,2.1580000000000004
ZnSn(SO4)3,2.1581
Na6ZnS4,2.1581
Li3Sn2(PO4)3,2.1582000000000003
Li5ReO6,2.1583
Li2FePO5,2.1583
Sm2MgSe4,2.1584
Sr2Li3TaN4,2.1584
CaTiO3,2.1586
Na2FePCO7,2.1587
K2Co2(MoO4)3,2.1587
NaMgP(CO3)2,2.1588
TeH15C5NOF6,2.1588000000000003
SINOF2,2.1589
YSeF,2.1589
MgSb2(PO5)2,2.1589
LiFeSiO4,2.1589
Na2ZnSe2,2.159
CoH15Br2(N3O)2,2.159
Na2FePCO7,2.1590000000000003
Li3FeSiCO7,2.1591
I2(OF2)3,2.1591
Li7Fe3Co(PO4)6,2.1592
RePO6,2.1592
Li2Sn(BO3)2,2.1593
Nd2Zr8O19,2.1593000000000004
Li2FePCO7,2.1595
HgN3,2.1595
TeO3,2.1595
Na2FePCO7,2.1595
Rb2LiNbS4,2.1595
Na2FePCO7,2.1595000000000004
DyPS4,2.1596999999999995
LiCr(SO4)2,2.1597
Li5SiN3,2.1598
LiFe(PO3)4,2.1598
NbGaSi(SO6)2,2.1598
Na2Zn2S3,2.1599
Li3Fe(PO4)2,2.16
Li3CuO2,2.1601
Li4Cr3FeO8,2.1601
Mg3Ge3(SbO6)2,2.1601
Li14Cr2N8O,2.1601
CsPrS2,2.1602
Fe2OF2,2.1602
Zn4SiTePbO10,2.160200000000001
MgZr2H10(S3O14)2,2.1603000000000003
Cs2RbGaBr6,2.1605
KV12O30,2.1605
Mg6ZnCO8,2.1605
Ca5(SiN3)2,2.1605
ZnNi(GeO3)2,2.1606
NaLa3NbP3(SO8)3,2.1606
Na2FePCO7,2.1606
Cd5P3ClO12,2.1606
CaCr2(PO4)2,2.1606
Li2La4O7,2.1606
H4CN4O3,2.1607
K4P4O5,2.1608
Mg30GaBO32,2.1608
Na2FePCO7,2.1609
Tl2SCl2,2.1609000000000003
CsH5N2,2.161
KCr12Si8ClO28,2.161
Na2FePCO7,2.161
P2WO7,2.1610000000000005
Pr3AsS5Cl2,2.1611
Li8PtO6,2.1611
Mg4Sb2O9,2.1611
Na2FePCO7,2.1612
NaFeP2O7,2.1612
Y2SeO2,2.1613
Gd2W2O9,2.1613999999999995
H6SN2,2.1615
Li3SbS3,2.1615
Cs2WS4,2.1616
MnH4(CO3)2,2.1616
HoPS4,2.1617
Ca2Ti6N2O11,2.1617
C4NCl3,2.1618
SnHC2O3,2.1618
K2ScAgI6,2.1618
Li4TiS4,2.1619
In2Sb2H16C4Se7N2,2.162
AlInO3,2.162
LaMgCrWO6,2.1621
SnP2O7,2.1621
Na5Sc2Ti2SiP5O24,2.1622
Na2SiBSbO7,2.1623
Li4FeO3F,2.1624
Li7Fe4P9O32,2.1625
K4(BSe)9,2.1626
Rb3AsI6,2.1626
Rb4SnO4,2.1626
S,2.1627
Na7As11O31,2.1627
LiFe2Si2O7,2.1628
LiFeP2O7,2.1628
Na4MgTiSi2SO12,2.1628
TmAgS2,2.1628000000000003
Li2CaTa2O7,2.1629000000000005
NaZr2VF11,2.163
LaTa2NO5,2.1631
NbPO5,2.1631
K2ErAuCl6,2.1632
H6PbCBr3N,2.1632
Zn2SnWO6,2.1633000000000004
Cs2LiV3F12,2.1634
Gd2CoTe2(SO7)2,2.1634
NaLi3Fe4(SiO3)8,2.1634
SiH,2.1634
LiFeSiO4,2.1634
K2Sr2O3,2.1635
KC(NO2)3,2.1635
LiFe(PO3)4,2.1635
NCl3,2.1636
Ba2MgMo4(P2O7)4,2.1636999999999995
La2MgS4,2.1637
Re2S2O13,2.1637
KFeCo(PO4)2,2.1638
Li2CoP2O7,2.1638
Li2FeBO4,2.1638
Al2InN3,2.1638
NaCr12Si8ClO28,2.1639000000000004
BaFe2(P2O7)2,2.1640999999999995
YNb2NO5,2.1641000000000004
Ho2CdS4,2.1641999999999992
Li2Mn5Si5O16,2.1642
Pr4InSbS9,2.1642
H16PtC4(NCl3)2,2.1643
Ta2FeO6,2.1644
Li5Fe(Co2O5)2,2.1644000000000005
VIn(SeO4)2,2.1645
NaTi3ZnP3(SO8)3,2.1645000000000003
V2Se3O11,2.1647
SrCa3(SnO3)4,2.1647
K6Mg(SbO4)2,2.1648
Si4Te2H44Pt(C8Cl)2,2.1648
WSeS2Cl5,2.1649000000000003
Y4S3N2,2.165
TiMnFe(PO4)3,2.165
RbFe(SO4)2,2.1651
Sr3Sn2O7,2.1652
KMg14AlO16,2.1653
LiNbFeO4,2.1653
Li2Fe2SiO6,2.1654
KUH3SO8,2.1655
Na5LaNb3Si5PO24,2.1656
CaMnO2,2.1657
Na2VAsCO7,2.1657
NaMnBO3,2.1658
Na5Sc3Ti(PO4)6,2.1658
LiMnH6O7,2.1661
KRb2RhF6,2.1662
CaV2O5,2.1662
BaV2(AsO5)2,2.1663
LiNbWO6,2.1663
K2NbAgS4,2.1663
Y6MoO12,2.1663
RbSnIO6,2.1663
YAg(WO4)2,2.1664
Ca(DyS2)2,2.1664000000000003
BaGdNbSnO6,2.1665
Rb6U2W4O21,2.1665
Ti5Bi4(PbO9)2,2.1665
Fe2P4Pb3O16,2.1666
Ca3Zn3(TeO6)2,2.1667
Cs2DyAuCl6,2.1667
ZrH12N5F4,2.1668
LiFeSiO4,2.1668
Li3V3(PO4)4,2.1668000000000003
Li2Fe3(P2O7)2,2.1669
ScCuO2,2.1669
Na7MgSbO6,2.167
Sr(H2N)2,2.167
Sm2Zr8O19,2.1670000000000003
K2PdN2(ClO2)2,2.1671
K3Nb3Si2O13,2.1672
CaCo2Te3(ClO4)2,2.1672
Li3Fe2(PO4)3,2.1672
YMgCo(WO4)2,2.1673
Sr5Re3ClO15,2.1673
Na3AsH16(SO2)4,2.1673
Sr6Mg(W2O9)2,2.1674
BaPr2NiO5,2.1674
Na2LiIrF6,2.1677
TaGaBi2O7,2.1677
Rb4UC3O11,2.1678
Na10Ga4Si7Sn4S5O48,2.1678
MgCdTe2,2.1678
Na2Ta2Nb2Si5SO24,2.1679
Na6Nb6In2Si9(SO16)3,2.168
NdBN2,2.168
K2Yb2O3,2.168
Rb2AgSbF6,2.168
LaNb5O14,2.1681
MgNbP(SO6)2,2.1681
Li3MnFeCo(PO4)3,2.1681000000000004
Li5Cr3(PO4)4,2.1682
MgZn2(FeO3)2,2.1682
Li4Ni3O3F4,2.1682
Na3ScTi3Si3(SO8)3,2.1683000000000003
Ba2YbUO6,2.1684
Mg2CrWO6,2.1684
AsXe2O4F9,2.1685
Li6UO6,2.1685
Li2FeBO4,2.1685
TePb2O5,2.1686
Bi3SbO7,2.1686
Li4Mn3OF8,2.1687000000000003
KUSiHO6,2.1688
Na3Fe(BO3)2,2.1688
LiCr4P7O24,2.1691
CsUV3O11,2.1691
BiSb3F20,2.1691
Ge3(MoO6)2,2.1691
Pr2SeO2,2.1691000000000003
ZnCd(GaS2)4,2.1691000000000003
Ga2Ge4Pb3O14,2.1691000000000003
Na30Ta8Zn16Si15(S7O48)3,2.1692
La2S2O,2.1692
Na6MgTi7(PO4)12,2.1693
Sr2UO5,2.1693
Tl(IO3)3,2.1696
Li4Cr3FeO8,2.1697
LiFeP2O7,2.1697
TiInP(SO6)2,2.1697
CsV2CrO7,2.1697
LiFeP2O7,2.1698
La(AuF4)3,2.1698
CsLuS2,2.1698
LiPWO5,2.1698000000000004
Na2VPCO7,2.1699
Na10Nb2In6Si7S5O48,2.1699
Cd2H3ClO3,2.17
Li9Cr2(H9O7)3,2.17
Cs2ErCuCl6,2.1700000000000004
SrCa3Ti4O12,2.1700000000000004
Dy2S2O,2.1701
Na5FeO4,2.1701
TbPS4,2.1701999999999995
LiVF4,2.1702
Te6As4C3(NF8)3,2.1702
GaTeCl,2.1702
NiSeO4,2.1705000000000005
Na3Fe(PO4)2,2.1706000000000003
MgV2(PO5)2,2.1707
GdCrO3,2.1708
Na2V2CoH4(OF)6,2.1708
Hf(PS3)2,2.1708
PaInO4,2.1708
Te6MoW3Se2,2.1708000000000003
Sb2C3OF18,2.1709
Ir3(CO)8,2.171
VTeO4,2.171
K4UO5,2.1712
Li2FePCO7,2.1712
LiLu2W2(ClO4)2,2.1712
Na10Nb6In2Si11SO48,2.1713
Rb2LaCuCl6,2.1713
In7Cl9,2.1714
Sr2CoSe2(ClO3)2,2.1714
NaMgNiIO6,2.1715
Li3Fe2(PO4)3,2.1715
CsTmZnSe3,2.1716
LiFeP2O7,2.1716
DyWO4,2.1716
Ca2Ta2CrO8,2.1716
Li12Fe3CoP4(CO7)4,2.1716999999999995
NaTiGaSi(SO6)2,2.1717
NbAlSi(SO6)2,2.1717
NbTeCl9,2.1717
Li2Mn4OF8,2.1718
Cs3H5Pt,2.1718
AlTlS2,2.1718
Na3Mg5Ta(SO4)9,2.1718
Ba2CeHfO6,2.1719000000000004
TaVO5,2.172
Na4H8PdPt,2.172
Li3FeO3,2.1721
Yb(HoS2)2,2.1723
Cs2UAs2O9,2.1723
SrSmFeSnO6,2.1723
Ca3SiH14CSO10,2.1723
BaCaCeSnO6,2.1723000000000003
V3OF11,2.1723000000000003
Na4H2RuN6O13,2.1724
Na2Gd4NCl9O,2.1724
Ti4Fe(PO4)6,2.1725
Na4YTiSi2PO12,2.1725000000000003
DyI3,2.1725000000000003
KFe2(PO4)2,2.1725000000000003
NaFeP2O7,2.1725000000000003
Ca14La6Mg3Ti17O60,2.1726
KUP3O11,2.1726
Dy6Mg(GeS7)2,2.1727
LaBN2,2.1728
HoP2(HO2)5,2.1728
Rb2HfS4,2.1728000000000005
KAuC2(SN)2,2.1729
BiTeO4,2.1729000000000003
BaVPO6,2.173
Na2Ta5Al3Si6(SO8)6,2.173
CuSb2(XeF4)6,2.1730000000000005
Fe3C9(SO5)2,2.1731
Li2V2P2(H4O5)3,2.1731
Co6Te5O16,2.1733
V3OF11,2.1733
LiFeSiO4,2.1733
Rb3TmO3,2.1734
Dy2Zr8O19,2.1735
SrMg6CO8,2.1735
Li2FeBO4,2.1735
K6U2Mo4O21,2.1736
V4CoNiO12,2.1736
LiCa2Ta3O10,2.1736
Mg30BiBO32,2.1736000000000004
LiVP3HO10,2.1737
TbPtF7,2.1737
Nb2Cd2O7,2.1738
CaZnF2,2.1738
Ca12Al14O33,2.1738
Na6NbIn3Si4(SO12)2,2.1739
Na4CO4,2.1739
Na2Ta5Ga3Si6(SO8)6,2.174
CsAu3Se2,2.1741
Er2SeO2,2.1741000000000006
NaTi2Ge2P5SO24,2.1742
KMgFe(PO4)2,2.1744
MgV(CO3)2,2.1744
Cs3AlTe3,2.1744
CrPbO4,2.1744000000000003
La2MgS4,2.1744000000000003
Ba3SrO4,2.1745
CaTi(GeO3)2,2.1745000000000005
NaIn4PS5O24,2.1747
TiPCl9,2.1747
Gd2MoO6,2.1748
K2HgHCl4,2.1749
BaH2(CO2)4,2.1749
LiFeP2O7,2.1749
Li2FePCO7,2.175
Co3B11HO20,2.1750000000000003
La9Al5S21,2.1750000000000007
LaSI,2.1752
Li6Br3N,2.1752
HgCI3N,2.1755
Na3AgS2,2.1755
VHgO3,2.1756
Ba6Gd2Fe4O15,2.1756
MgFe4(OF)4,2.1756
Rb2FeH2Cl5O,2.1756
NaMg6FeO8,2.1757
LiVNiO4,2.1757000000000004
SnHg2(SBr)2,2.1758
Na6Mg(SbO4)2,2.1759
Na8Ca2Sc2Si3(SO8)3,2.3594000000000004
BaVP2(H2O5)2,2.3594000000000004
Li6CoNiP2(CO7)2,2.3595
KFeCo3(PO4)3,2.3595
NaTi3Nb(PO4)6,2.3595
N3Cl,2.3595
Na6ZnSi2Ge3(PO6)4,2.3596000000000004
Na3MgSn3P5SO24,2.3597
LaH2SNO7,2.3598
Li5Cr3FeO8,2.3598
Li3NiF6,2.3599
LiH6IO7,2.3600000000000003
YPaO4,2.3601
Tl2InGaF6,2.3602
La8Si5N14O,2.3602000000000007
Tl2SiS3,2.3603
K2NiF6,2.3603
SrZr2SnO6,2.3605
K2Hg3S3O10,2.3606
Na6Mn2V4O15,2.3606000000000003
KNdTiO4,2.3607
Gd3TaO7,2.3607
Co(IO3)2,2.3607000000000005
CaLaGa3S7,2.3608
Na3V3Cr2O12,2.3608
Sn2(SO4)3,2.3608
CsTiCoOF5,2.3608
PrCuO2,2.3609
KSb2PO8,2.3609
Li2Cr2P2O9,2.3611
Cs2PtS6(O3F)6,2.3611
Ti(GaO2)4,2.3612
LiMnVF6,2.3612
Pr2S2O,2.3612
AgC2N3,2.3612
Li2FePO5,2.3612
Mo(HO2)2,2.3613
K2HgCl4,2.3613
FeH12Pt(ClO)6,2.3613
K3VH2(CO5)2,2.3613
Ga2S5N5Cl7,2.3613
AlInS3,2.3614
NaTmS2,2.3614
LiMnNbO4,2.3617
KSn2Br5,2.3618
SrLaTaMnO6,2.3618
Na9Ca2Nb10Si9(PO8)9,2.3618
NaTi2BiO6,2.3619
LiLa3Ti2O9,2.361999999999999
HgIBr,2.362
K2Te(WO4)3,2.362
TiMn(PO4)2,2.362
Li2VSiO5,2.3621
NaSr2Nb5O15,2.3621
TlSn2Br5,2.3623
NaMnVO4,2.3623
Li2VOF3,2.3625000000000003
Na12Ca4Nb2Si3(PO6)6,2.3626000000000005
MgCrO4,2.3629
Ba3U2As4O19,2.363
Ca3MnH12S2O17,2.363
Na2NbAlSi(PO6)2,2.363
Si4Bi2AsH38(C7Cl)2,2.3631
CsNO2,2.3632
Na3NbIn3P5SO24,2.3632
Cs3FeMo4O15,2.3633
Mg14CuBiO16,2.3633999999999995
H7SIO10,2.3634
CaCdS2,2.3634
YSbO4,2.3634
Na5MgSiSn3P5O24,2.3635
LiFeP2O7,2.3635
KH4C6O3F5,2.3635
Zn2SiO4,2.3636
Na5NbAl3SiP5O24,2.3637
NaH6C4SN3O5,2.3638
K4Ru(NO2)6,2.3638
K2InBiF6,2.3638000000000003
Ba4Mg(GeO3)4,2.3638000000000003
YNb2NO5,2.3638000000000003
Li2VF5,2.3638000000000003
Pt(C4N3)2,2.3639
SiBr2,2.3639
SrCaZrTiO6,2.3639999999999994
Mn3Fe2(SiO4)3,2.364
NbPb2Se2ClO8,2.3641000000000005
Ni3Mo2SeO11,2.3643999999999994
Li4V(PO4)2,2.3644
InClO,2.3645
TmBO3,2.3645
Re2O7,2.3646000000000003
KAuF4,2.3647
MgMnV4O12,2.3648
Li2VSn(PO4)2,2.3649
Co5Te4(ClO6)2,2.3649000000000004
LiVPO4,2.365
Na2La4Zr4Si3(S3O16)3,2.3651
MgVF4,2.3652
Ta2BiO6F,2.3652
Co2H2CO5,2.3652
LiV(CO3)2,2.3653
Li10Ge(PS6)2,2.3653
LiGaAs2O7,2.3654
BPb3O4F,2.3654
H3CSClO,2.3655
K3Cr4PO16,2.3655
CsVNiF6,2.3655
Li6Co5(P2O7)4,2.3657000000000004
NaCo2H3(SeO5)2,2.3657000000000004
Li4TiS4,2.3658
Zn3Co2(SiO4)3,2.366
Tb4(SiS4)3,2.3660999999999994
Na6MgSi2Sn3(PO6)4,2.3661
Mg6CrFeO8,2.3662
As2S2F3,2.3662
Li10Si2NiO10,2.3662
Na2PbO2,2.3664
Gd2ScNbO7,2.3666
CsMg6SbO8,2.3666
RbB2SbO6,2.3667
SnIBr,2.3668
Li7Zr3Nb(TeO6)4,2.3669
Na8Ta2Zn2Si5SO24,2.3669999999999995
Ba2S2O3F2,2.3669999999999995
Ga4Ge(PbS3)4,2.3669999999999995
VH8N2O5F,2.367
KSmSnWO6,2.3670000000000004
KNdGeS4,2.3671
K3IrF6,2.3671
H24RuC8(S2Cl)2,2.3671
SiGe2(SO6)2,2.3672
V2Bi4O11,2.3673
Li2V(PO3)4,2.3674
Ca5W3O14,2.3675
Li3Sn2(PO4)3,2.3675999999999995
HfSnO3,2.3676000000000004
Co3P2(HO)16,2.3677
Na2ZnS2,2.3678
Nb3Cr(PO4)6,2.3678
MgTiFe(PO4)3,2.3679
TbFe3(BO3)4,2.368
RbTmS2,2.3680000000000003
ZrTi(PbO3)2,2.3681
Mg2MoWO6,2.3681
SrVF5,2.3682000000000003
NaNbO3,2.3684000000000003
Mg14CrFeO16,2.3684000000000003
Te7(OF5)6,2.3684000000000003
Li3VF5,2.3684000000000003
Li2VF6,2.3686
RbPPbS4,2.3687
LiP2WO8,2.3688
Rb2MgNb2(TeO6)2,2.3688
Ba6Pr2Fe4O15,2.369
MgNb5(PO4)9,2.369
UP2H6O7,2.3692
NaGeSbO5,2.3692
Li4CoTeO6,2.3692
K2W2O7,2.3693
CdAs2(XeF5)4,2.3694
Pb3WO6,2.3694
Na2VCoF7,2.3694
Ba2LaI7,2.3695
K2TiH2O3F4,2.3695
KMo3Br7,2.3695
Tl3Bi2I9,2.3696
Li2MnF6,2.3696
B8O,2.3696
Na3In2(AsO4)3,2.3697
KInF3,2.3697
Sr2MgV2(Si2O7)2,2.3698999999999995
VPbClO3,2.3699000000000003
Ni3B7IO13,2.370000000000001
Ba5Nb2O10,2.3701
BaH2N2O5,2.3701
Rb2FeH2C5(N3O)2,2.3701
Tl2AgI3,2.3701000000000003
Li2Cr2O7,2.3702
H8C2N6O7,2.3702
NaBi3(ClO2)2,2.3702000000000005
NaNb3InSiP5O24,2.3703
TaSb3O8,2.3703000000000003
SmBN2,2.3704
NaClO2,2.3705000000000003
Na3NbGaSi2PO12,2.3706
CaC2,2.3706
Mg6FeCuO8,2.3707
Li2Ti3ZnO8,2.3708
Ca2TiSiO6,2.3708
MgCo2(BO3)2,2.3709
NaBiTeO5,2.3709
Ca2AlBiO5,2.3709
Li6Mn(OF2)2,2.371
YFe3(BO3)4,2.371
CoTe2O5,2.3711
Ba3Tb2(PS4)4,2.3711
Zn(H2N)2,2.3711
Ca(GaS2)2,2.3711
K2H2C2S2N2O,2.3712000000000004
Hg4BiS2Cl5,2.3713
Cd2PO4F,2.3713
TiZnFe(PO4)3,2.3714
NbAl3P2(SO6)4,2.3714
CaCrO4,2.3714
TmSb(PbO3)2,2.3714000000000004
Na3Y2Ge2P5SO24,2.3715
LiVF3,2.3717
Li2VBO4,2.3718
Al2Zn(SeS)2,2.3719
Sr3Ta7Si(BiO4)9,2.3719
Li6Mn5Fe(BO3)6,2.371900000000001
Li4TiS4,2.372
Na2FePCO7,2.372
Cs3Re6(SCl)7,2.3721
LiVB2O5,2.3721
Li7NbS6,2.3721
GaI3,2.3721
NaYTiO4,2.3722
Nb4Ag2O11,2.3723
Na3Nb2Ga2SiP5O24,2.3723
Li20Si3P3S23Cl,2.3724
ScTa3(PO4)6,2.3725
Li6MnNiP2(CO7)2,2.3725
Ca3Cu2(BrO2)2,2.3726
Li6Ti2O7,2.3726000000000003
KLaTbSbO6,2.3726000000000003
KErS2,2.3727
Li3Cr2P5O16,2.3727
Na10NbIn7Si6(SO8)6,2.3727
Li12Mn3CrP4(CO7)4,2.3728
Na2TaAl3Si2(SO6)4,2.3728
Li4MnCo3(PO4)4,2.3728
SrLaNbZnO6,2.3729
Li5Fe5Si7O24,2.373
K6Mo7H18O35,2.373
Ge(PO2)3,2.3731
LiFeP2O7,2.3731
Mg2SiO4,2.3731
MgVFeMo3O14,2.3731
Nb2NiO6,2.3731000000000004
Na6La4In4Si3(S3O16)3,2.3732
Na2FePCO7,2.3732
Li2CoP2O7,2.3733000000000004
Li2TiFe(PO4)3,2.3733000000000004
CdC2(Br2N)2,2.3734
CsRb2IrF6,2.3735
Ta4Zn2Si3(SO6)6,2.3735
Ba3Ta2MnO9,2.3735
Ba3Dy2(PS4)4,2.3736000000000006
CsFe(MoO4)2,2.3737
Ba2YI7,2.3738
Li2P2WO8,2.3738
Zn2CoWO6,2.374
Pb2BrOF,2.3740999999999994
Ti3H2O7,2.3742
LiMnF4,2.3742
S4I2O15,2.3744
NbBi2O5F,2.3744
AgClO4,2.3744
Ta3GaSi3(SO8)3,2.3744
NaAl2Ge2P3(SO8)3,2.3745
Li2MnF6,2.3745000000000003
Na6CaSi2Sn3(PO6)4,2.3746
ZnBi3P3O13,2.3749
CuW3Cl7,2.3749
LiZn2AgWO6,2.375
Dy2ZnS4,2.375
CdH2C4(S3N2)2,2.3751
Sr4SeS3,2.3751
Rb2Sn(GeO3)3,2.3752
Li6Mn5Fe(BO3)6,2.3752
Nd2SiS5,2.3752
Ba2La4Ti5O18,2.3756000000000004
XeF3,2.3757
HXeNO3F2,2.3757
GeC,2.3757
KLiO,2.3758
CsSbO2,2.3758000000000004
VPb2Se3O10,2.3759999999999994
Sb4Br2O5,2.376
Fe4(P2O7)3,2.3761
Na7MgSi3Ge3(PO8)3,2.3761
Ca3Si4(SbO7)2,2.3761
Ge(Bi3O5)4,2.3762
Gd2InSbO7,2.3762000000000003
NaLiMg30O31,2.3763
CoSe2O5,2.3763
LiVF3,2.3764000000000003
Gd2B4O9,2.3766
Na8Y3NbSi4(PO12)2,2.3766
GaI2,2.3766
BiOF,2.3766000000000003
Rb4GeO4,2.3767
CrCoH15N5ClO8,2.3767
K2Pd(NO2)4,2.3767
Tm2MgS4,2.3768
K2RbSbI6,2.3768
Cs2RbSbI6,2.3768
BaCaCeHfO6,2.3769
H5IO6,2.3769
NaCoPO4,2.3769
Te2MoW3(SeS2)2,2.3772
BaYI5,2.3773
CrH12I(N2Cl)2,2.3773
Co(HO)2,2.3773
Gd2GaSbO7,2.3774
Zr4N2O5,2.3774
Li6Cr3Fe(PO4)6,2.3776
NaSrHfNbO6,2.3776
UH16C3N4O11,2.3776
LiCrSnO4,2.3777
Ba3Er2(PS4)4,2.3777000000000004
Na3TiGaSi(PO6)2,2.3778
CsRb2GaBr6,2.3778
Na4Sn3O8,2.3778000000000006
Na2CrCSO7,2.3779
RbFe(MoO4)2,2.3779
Li2Cr2O7,2.378
MgVF5,2.378
NaTi2(AsO4)3,2.378
Li12Cr3NiP4(CO7)4,2.3780999999999994
Ho2MgS4,2.3781
Cd3H28C12(N15O)2,2.3781
TeCF3,2.3781000000000003
S,2.3782
AgAsO2,2.3783
Ti3(WO6)2,2.3785
Li8TeO6,2.3786
Li6Mn5Fe(BO3)6,2.3787
Ba9La3Mg5Nb7O36,2.3787
Hg3PClO4,2.3788
V2NO5,2.3788
Mg2SnWO6,2.3789
LiBi3(BrO2)2,2.3789