formula,band_gap (MP)
Co3(PO4)2,2.5122
Na2InSn(PO4)3,2.5122
LiTiSn(PO4)3,2.5122
CaCrP2O7,2.5122
AgC4OF9,2.5123
LaFeTeO6,2.5123999999999995
V2H10Se2O13,2.5124
Te2Pb3(BrO3)2,2.5124
Fe2(WO4)3,2.5124
In2WO6,2.5124000000000004
BaV2TeO8,2.5124000000000004
Rb3Mo2HCO13,2.5125
LiCrPO4,2.5125999999999995
Li4NbFe3O8,2.5126
KMgH3,2.5126
Tb2S2O,2.5126000000000004
Na6MgGe7(PO4)12,2.5127999999999995
CoH9C6(S2O)3,2.5128
RbGa(SeO4)2,2.5128
Mg5V2(MoO8)2,2.5128000000000004
HI3O8,2.5131
TeC4(BrF3)2,2.5133
Li3Fe(BO3)2,2.5133
LuGaO3,2.5134000000000003
SmCuO2,2.5136
Zn2PN3,2.5136000000000003
MnRe(CO)10,2.5136000000000003
Na3TbTi2Nb2O12,2.5137
Nd4Si2S3O7,2.5138
TiH2SO6,2.5139
KYSnWO6,2.514
BaMg14VO16,2.514099999999999
Li4Mn3OF8,2.5141
Cs2CrH2Cl5O,2.5142
Na2Ge2S5,2.5142
Li2SiBSbO7,2.5145
KMg30WO32,2.5145
KFeAs2O7,2.5145
Mg2V2CoO8,2.5147
Na6MgSn7(PO4)12,2.5148
Sr3TeO6,2.5149000000000004
LiFe(PO3)4,2.5151
Ca2MnWO6,2.5151000000000003
Li2Sn3(P2O7)2,2.5153000000000003
Na3DyTi2Nb2O12,2.5154999999999994
Na3SbH30S3N10,2.5157
KNO2,2.5157
Dy2TiO5,2.5157000000000003
Li2MnSi3O8,2.5158
NbBiO4,2.5158
Ta3Te4ClO15,2.5158000000000005
Na15Mg10Nb2P9(SO8)9,2.5159
MgAlFeO4,2.5160000000000005
RbNbV2O8,2.5161
LiVP2O7,2.5161
Rb3InBr6,2.5162
CaMg30MnO32,2.5162000000000004
Na14La4Nb4Si11SO48,2.5162000000000004
AlSn3Se2ClO8,2.5163
Co3AgP3(HO6)2,2.5163
Lu2S3,2.5165
Na6CaTi3Si2(PO6)4,2.5165999999999995
BP4H36Rh(C9F5)4,2.5166
Sb2Te2O9,2.5167
Li2VH2OF5,2.5167
Sb2P2C2O7,2.5169
UP2H10CO11,2.5169
K3Mo2O4F5,2.5171
Li6Zn3(PS4)4,2.5173
LiTi3Nb(PO4)6,2.5173
HgAsF7,2.5173
Na2SnGe2(HO4)2,2.5175
ClF3,2.5175
Na4Nb2Si5Ge2SO24,2.5175
K2Mn(BH4)4,2.5177
Ba2TbMgSbO6,2.5178
Li6Zn3(PS4)4,2.5179
RbMg30SbO32,2.5180000000000007
VH9(NF)3,2.5181
CsPbI3,2.5181
H6SN2,2.5181
Sr2YbMoO6,2.5181000000000004
Li11Sc7Ti(PO4)12,2.5182
Be3Ag4P3BrO12,2.5182
K2TlCoF6,2.5182
Ca3MnO4,2.5182
Sr4NdNb2Al3O15,2.5183
CdH2SeO5,2.5187
Ho2TeO6,2.5188
K2Cr2HgCl2O7,2.5189
K2Gd(BH4)5,2.5191000000000003
Na2MgVF7,2.5192
Rb16Er7Ti9(PO4)24,2.5192
YTa3(PO4)6,2.5192
Na14Sc4Nb4Si11SO48,2.5192
ZrTiP2SO12,2.5193
NiH20C12S2(NO4)2,2.5194
K2B2S7,2.5194
MnNb4FeO12,2.5194000000000005
SbOF3,2.5195
Cs2Zr2Mn(MoO4)6,2.5195
Na3H7Ru,2.5195
K2TlGaCl6,2.5197
Rb2Cd2(SO4)3,2.5197
NaSm(PS3)2,2.5197
Ca4Al3CrSiBO14,2.5198
ZnBi2B2O7,2.5198
Li4Ti5O12,2.5198
BaSr3O4,2.5199
LiCrCO3F2,2.5199000000000003
Ca3CdO4,2.52
Li2V3(P2O7)2,2.5200000000000005
Rb2DyCuCl6,2.5201
CoH24C6Br2(N2O3)2,2.5201
CuCN,2.5202
Na3VPCO7,2.5203
SbF4,2.5203
Na(CO)2,2.5203
Li4GeS4,2.5203
Na2TiCr(PO4)3,2.5205
Na10Ti4Nb4Si11SO48,2.5206
Ti2P2SO12,2.5207
NaTi2(PO4)3,2.5208
CoH19S3N5O11,2.5208
Ti2Bi2O7,2.5208
VBiPbO5,2.5209
Na4Mg(BiO3)2,2.5210000000000004
Na5In2SiSn2P5O24,2.5211
RbGa3S5,2.5212
Rb3TlCl6,2.5212000000000003
Tl2Mo4O13,2.5213
Al2PbSe4,2.5214
LaCuO2,2.5215999999999994
GeClF,2.5216000000000003
Na5Zr2Nb2Si5PO24,2.5216000000000003
LiBiO2,2.5217
Li10Zn(PS4)4,2.5218000000000007
Cs2UH(OF2)2,2.5219
UP3HO11,2.522
TiSi4(NCl7)2,2.522
Na4NbGa3Si3(SO8)3,2.5221
Na3In2Ge2P5SO24,2.5221
Na5Nb3GaSi5PO24,2.5221
Na14La4In4Si7S5O48,2.5221000000000005
Co(HO)2,2.5222
Na3Co(NO2)6,2.5223
Na3AsS3,2.5223000000000004
MnCoB2O5,2.5224
Ba7B4S13,2.5225
TbAg3H6C6(N2O)3,2.5225
Ba2MnNiClF7,2.5225
Na2H18Pt(NF)6,2.5225
KDySnWO6,2.5226
LaSmCr2O6,2.5226
S2N2Cl,2.5228
ZnBi6P2(O7F)2,2.5228
Li5La5(SiN3)4,2.5229
Ho2MgS4,2.523
K2RbInBr6,2.5232
NaZr3TaSi3(SO8)3,2.5233000000000003
NbXeF11,2.5235
Na6Hf2Zn2Si3(SO8)3,2.5238
Na5Sc3Si3Sn(SO8)3,2.524
Na8La3NbSi5SO24,2.524
Ba(H2O3)2,2.5241
Ba2NdMgBiO6,2.5241
TeBr4,2.5242
S,2.5243
Li10Zn(PS4)4,2.5244
MgMn2(BO3)2,2.5246000000000004
Na3TmCl6,2.5247
LiVTeO5,2.5249
Tm2S3,2.5249
Na2TiAl(PO4)3,2.5249
Na6Nb3Al(SiO4)6,2.5249
LiVPO4,2.5249
CaZrV2O8,2.525
Na2SnH14S3O7,2.5250000000000004
Na4Zn2In2SiS5O24,2.5250000000000004
K2ScInCl6,2.5251
LiCoPO4,2.5252
Na2Cr2O7,2.5253
V5NiH20NO22,2.5253
LaNbP2SO12,2.5254
K2FePH5(CO5)2,2.5254
ZnNi(GeO3)2,2.5254000000000003
RbLiZnS2,2.5255
TlCNO,2.5255
CdSiO3,2.5256
Na6Ca3ZrSi2(SO6)4,2.5256
Dy2Ti2O7,2.5258000000000003
VSnH9(CO)3,2.5258000000000003
CdRe2H26C6S6(N4O3)3,2.5258000000000003
LiCrP2O7,2.5258000000000003
TmInO3,2.5259
Gd3SbO7,2.5259
CaCo2(PO4)2,2.5259
Na7La2Ti2Si3(PO8)3,2.526
MgGeO3,2.5261
YNb2NO5,2.5261
KV2SbO8,2.5263
Ca3(AlN2)2,2.5264
MgCr2O4,2.5264000000000006
Li3Fe2(AsO4)3,2.5266
MnSiO3,2.5266
Cs2Sn2O3,2.5267
K4CO4,2.5269
FePH5CO8,2.527
Rb3IrF6,2.5271
Li3VF6,2.5271
LiS2N3O8,2.5272
Na6ZnSi2Sn3(PO6)4,2.5272
Mn3Nb8FeO24,2.5274
K2Pb(SO4)2,2.5274
Cs2TlSbF6,2.5275
Ti2Bi2O7,2.5276999999999994
PrV2IO9,2.5277
Ag3C(NO2)3,2.5277000000000003
Y2Th8O19,2.527799999999999
SrCd2H16(Br3O4)2,2.528
LaNb2ClO6,2.5280000000000005
Na15Mg2Nb10Si15(PO24)3,2.5281
ZnSb2(XeF4)6,2.5281
Rb4SiO4,2.5281
LiV(OF)2,2.5283
MgTeWO6,2.5283
AsCl3O,2.5284
Na7Ta3Zn(SiO4)6,2.5286
K2MgO2,2.5286
Ga2BiS4,2.5289
Na2Zr6Zn2Si3(S3O16)3,2.5289
InSb3(PO4)6,2.5289
Ba4Tm6O13,2.529
La4Ga3FeO12,2.529000000000001
Rb2Cr5F17,2.5291
SmAgO2,2.5292
Na2TiSiSn(PO6)2,2.5292000000000003
Li3Mn8(OF3)4,2.5293
TbTa5Ag2O15,2.5293
LiCrP3H8O13,2.5294
Ba4Ti13O30,2.5295
NaNbSiSn(PO6)2,2.5295
SiO2,2.5295
Mg14BWO16,2.5295999999999994
NaNbO3,2.5296
Na7NbSi6(GeO8)3,2.5297
YNb2NO5,2.5297
Li2H6PtO6,2.5297
Na14In8Si7S5O48,2.5298
La(AlBr4)3,2.5299
Na3TiAlSi2SO12,2.53
Tb2AlFeO6,2.53
LiMnPH2O5,2.5301
Na3TaZnSi(PO6)2,2.5302
Ca3Ti2O7,2.5302
HC2N3,2.5302
Na3Ti2SiGe2P5O24,2.5302999999999995
P2WO8,2.5304
BiP(PbO2)4,2.5304
YNb2NO5,2.5304
P2H10S4N2O,2.5304
YMg6CuO8,2.5305
Dy2TeO6,2.5307
AlSeS2N2Cl5,2.5307
TiSiGe(SO6)2,2.5308
Na9Mg4Ta2(PO4)9,2.5308
Sm2Mo4O15,2.5309
Ba4Ti11O26,2.5309
RbMg30FeO32,2.5309
Ca2GeS4,2.5311
Gd3NbO7,2.5311
LiB2SbO5,2.5312
W2OF8,2.5313
Rb2TbCuCl6,2.5313000000000003
NaTaO3,2.5313000000000003
La3Gd(BrO)4,2.5314
BaVCdF7,2.5315
MgCo(WO4)2,2.5316
Ba7Ti2Nb4O21,2.5316
Sr2Ga2S5,2.5316000000000005
SbS(BrF2)3,2.532
LiV(PO3)3,2.5322
Na5Ga3Si3Sn(SO8)3,2.5322000000000005
RbV2SbO8,2.5323
Na3Co(NO2)6,2.5324
Hg3TeCl4,2.5324
TaTl3S4,2.5325
ZnH4(ClO3)2,2.5325
Sr2BIN2,2.5325999999999995
Gd3SbO7,2.5327
Na5Ti2Si3Ge2(PO8)3,2.5327
Na6Al4In4Si3(S3O16)3,2.5328000000000004
AlCuCl4,2.5329
Na10NbGa7(PO4)12,2.5331
NaHgCl3,2.5331
Nb2Zn4O9,2.5331
CrH6CN3ClO3,2.5332
Cs2Sn(H2N)6,2.5332
Na2Ca3Ta2Ti3O15,2.5332000000000003
AlGeP(SO6)2,2.5333
Cs3GaO3,2.5333
LiVBO4,2.5334000000000003
HgH8C2Br3N,2.5334000000000003
Ag2CSNClO4,2.5336
LiV(IO4)2,2.5336
Cs2YCuCl6,2.5338
Mg2SnO4,2.5338
Ba2MgNiWO6,2.534
Na4Bi2O5,2.5341
SbC6S2F19,2.5341
LiV(PO3)4,2.5341
Na10NbAl7(PO4)12,2.5341000000000005
Cs2TbCuCl6,2.5342
Ba3TiO5,2.5342
Cs2PrAgI6,2.5343
Na5Mg2Ta2SiP5O24,2.5343000000000004
HoCuO2,2.5344
La7ScAl8O24,2.5344999999999995
KMoAsO6,2.5345
SiHg2(OF3)2,2.5345000000000004
KMg14BO16,2.5345000000000004
K3ReC4(N2O)2,2.5346
Ba4Lu6O13,2.5346
Al2FeO4,2.5346
Bi8(MoO7)3,2.5347
TeBrO3F5,2.5347
VBiO4,2.5347000000000004
LiVSiO4,2.5348
Na3CrPCO7,2.5348
NaMgTi3O7F,2.5349
KPrZr2O6,2.535
NaZrNbSi(PO6)2,2.535
KRb2IrF6,2.5351
Sr2MgTiFeO6,2.5352
Sb3IO4,2.5352
Na2La2Ta6Si7S5O48,2.5353000000000003
FePO4,2.5353000000000003
VBi(PbO3)2,2.5354
Li2CoP2O7,2.5356
FeH12C8S2(NO)2,2.5357
Rb2Sn(H2N)6,2.5357000000000003
K2PrAgF6,2.5361
MgVF5,2.5362
LiY3WO8,2.5363
TiI2O7,2.5363000000000007
KLiMg14O15,2.5365
Na3TiGaSi2SO12,2.5365
Ba8CaY2U4O24,2.5366
Na6TiMn(SiO3)6,2.5366000000000004
Li3Mo4P5O24,2.5369
LaTa3(PO4)6,2.5369
CoH6(CO3)2,2.537
B2(CN2)3,2.5371
K2CrH5C4S4N4O3,2.5372
Na3SbBr6,2.5372
Na7Nb2Ga2Si5PO24,2.5372000000000003
Na2La4SiS5O24,2.5372000000000003
Pr6Si4S17,2.5372000000000003
MoP4H38C13(NCl)4,2.5373
CoAs2S4(O2F3)4,2.5374000000000003
LiVSiO4,2.5375
Tb2Zr2O7,2.5376
Ba2CdMoO6,2.5376000000000003
KCo4(PO4)3,2.5376000000000003
Mo2H13CN3O13,2.5377
Li3Fe2(PO4)3,2.5377
Na7TaTi3(SiO4)6,2.5377
Na2Al2Si3(HO3)4,2.5378
CdRe2H8C2(N2O5)2,2.5378
Na5TaO5,2.538
CsFe(MoO4)2,2.5380000000000003
Na3ZnGaSi(SO6)2,2.5381
H28Pt2Br5N9O2,2.5383000000000004
Mg(SbO2)2,2.6114
H9C8NO9,2.6115000000000004
Li6Mn5Fe(BO3)6,2.6116
BaSr2Er6O12,2.6118
CsAgC2,2.6118
CsMgH3,2.6118
GePbO3,2.6118999999999994
BaErAl3SiN4O3,2.6118999999999994
H9PtN2ClO2,2.6119
Na10Sc7Nb(PO4)12,2.612
Nb3Sb3O13,2.612
CrH9C6(S2O)3,2.612
MnH4(NO4)2,2.6122
NaFeBP2H3O10,2.6123
Na3GaS3,2.6125
AsXe2BrOF12,2.6125000000000007
SrTi(PO4)2,2.6126
TiGeP2SO12,2.6127
Bi5O7F,2.6127
Na10Hf4Ti4Si9(SO16)3,2.6128
FePHC4(OF)3,2.6128
HfMnO3,2.6129
GdPO4,2.6130000000000004
MoH12Pd(NO)4,2.6134
Li2V(CO3)2,2.6134000000000004
TlAg(CN)2,2.6135
SnP2(NO3)2,2.6137
Na2H6PtO6,2.6137
Sn5(PO5)2,2.6138
Li2MnSiO4,2.6138
AlZn2Sb(HO)12,2.6138
Na2CaZrSi(SO6)2,2.6139
AlSn3Se2ClO8,2.614
Na14La6Ta2Si9(SO16)3,2.614
Li2Cr(Si2O5)2,2.6140000000000003
S2I2O11,2.6141
LuSF,2.6141
LiCrP2H5O9,2.6141
Ca8Al9Fe3Si12(HO13)4,2.6141
AlPS4,2.6141
SnPClO2,2.6142000000000003
ZrCrF6,2.6143
Si6H31C10N,2.6143
Li2FeSi3O8,2.6144
Li4GeS4,2.6144
Y2Zr24O51,2.6145
LaMg2TaO6,2.6145000000000005
KCu(CN)2,2.6146000000000003
Li3V(CO3)3,2.6147
GdCrTeO6,2.6147
Li2CoPO4F,2.6148
Na6La2Ga2Si3(SO8)3,2.6149000000000004
Na3HoTi2Nb2O12,2.6149000000000004
Cu4H18C6S3I4,2.6151
K2CdSiO4,2.6153
La3Si2S8Cl,2.6154
LiTi2(PO4)3,2.6155
K4Bi2O5,2.6155
BaSrGdNbO6,2.6155000000000004
Be3Si3(SbO6)2,2.6156
Li2Zn(HCl2)2,2.6157
CaNi(GeO3)2,2.6157
Tm2WO6,2.6157000000000004
CsMoIO6,2.6158
Li2CoP2O7,2.615800000000001
Nb3Zn2Bi3O14,2.6158999999999994
Na14Nb4In4Si11SO48,2.6159
KCdAu3(CN)6,2.616
CoH20C4(N5O6)2,2.616
Cd2H2SO6,2.616
Bi5NO10,2.6161
LiFeMoClO4,2.6161
Na7Sc2Ti2Si3(PO8)3,2.6163
Ba5MgMnV4(Cl3O7)2,2.6163
Na3CoAsCO7,2.6166
OsXe(O2F3)2,2.6167
KHCS2N,2.6169
MgBi(WO4)2,2.6169
Na2Zr2Zn2SiS5O24,2.6169
PbBrF,2.617
Cs2Zn5P6(HO2)14,2.617
BaFeP3H2O11,2.6171
Na12Ca4Ta2Si6(SO12)3,2.6172
NaTaO3,2.6172000000000004
LiCoBO3,2.6172999999999997
NaScSnO4,2.6174
Li4Cr3P4O15,2.6174
MnZn(SiO3)2,2.6174000000000004
NaCr(SiO3)2,2.6175
Li4Zn(H2N)6,2.6176
K2ZrFe(PO4)3,2.6176
LaTiI5O16,2.6177
Ca3Al3N5,2.6179
Li4MoO5,2.6180000000000003
CsCa(NO2)3,2.6181
Yb(H2N)2,2.6181
Na2Cr2O7,2.6181
Lu2Sn2O7,2.6183
CS2(NCl)3,2.6183
BaMg6BiO8,2.6183000000000005
Ni(IO3)2,2.6184
H6C2NO,2.6184
Dy2MgS4,2.6184000000000003
Na7MgTa3(SiO4)6,2.6186
Li6MnO4,2.6186
Na2Sc3Ta5(PO4)12,2.6187
Mg3Si4(BiO7)2,2.6188
TaSi2H36C12N4Cl,2.619
Li2Fe2Si3O10,2.619
SrCa2WN4,2.6190999999999995
Na8In2Si5Ge2SO24,2.6191000000000004
Li2Co(WO4)2,2.6192
Na3TmTi2Nb2O12,2.6192999999999995
NaLaMgTeO6,2.6193
Li12MnCr3P4(CO7)4,2.6193000000000004
Ti3H2O7,2.6194
MgNiAs2O7,2.6194000000000006
Mg6FeCoO8,2.6194999999999995
Sc2H10S3O17,2.6195
Li2VOF4,2.6196
CsMg30CrO32,2.6196
Na4TiAlSi2PO12,2.6197
Cr2NiO4,2.6197000000000004
Ho4Si2S3O7,2.619800000000001
Rb2YCuCl6,2.6201
NaLi3Ti2Cr2(PO4)6,2.6201
NdMg2TaO6,2.6203
Li6VFeP2(CO7)2,2.6203000000000003
Ge7PbN10,2.6204
CsFeNiF6,2.6205
Na14Y4Nb4Si11SO48,2.6206
Li3V(BO3)2,2.6206000000000005
RbGd2Cl7,2.6207
KMo2H29C9O11,2.6207000000000003
Mg6CdBiO8,2.6208
Li2CoSiO4,2.6208
Cr2CoH20N6ClO8,2.621
Li3Mo2(PO4)3,2.6211
Li4Co2Si3O10,2.6211
CaTb4Al2(FeO6)2,2.6212
CsGd2Cl7,2.6213
Sn(CO2)2,2.6213999999999995
La2Ti3O9,2.6215
TiAs2Pb2O9,2.6218
Li2CoSiO4,2.6218000000000004
LiVF3,2.6218000000000004
Sc3NbO7,2.622
NaNb2SiGe2P5O24,2.622
BaLaI5,2.6221
Zn(HO)2,2.6221
Na3TaZnSi(PO6)2,2.6222000000000003
HfMg6BO7,2.6223
ZrTiO4,2.6223
ZnAu2(CN)4,2.6223
La8Ti2Ga2O19,2.6223
SiBi2O5,2.6223
RbInI4,2.6223
Sr4Cr3O9,2.6223
Li2VPHO5,2.6224
MgTa2(FeO4)2,2.6224
CaV3(P2O7)2,2.6225
K2Na4Be2O5,2.6225
Ba5Y2ZrAl2O13,2.6225000000000005
SrLiVF6,2.6226
Li2Co2Si2O7,2.6226000000000003
CdCO3,2.6226000000000003
Li3Gd(NO3)6,2.6228
KRe2O4F7,2.6228
Li2Co2Si2O7,2.6229
DyInO3,2.623
Ta3Zn2Bi3O14,2.6231
ZrTi(PbO3)2,2.6232
Na14Al4In4Si7S5O48,2.6232999999999995
Rb2Mo3SO13,2.6234
Hg3As2F12,2.6234
Be(GaO2)2,2.6235
Rb2Ti6O13,2.6235
BaTi5O11,2.6235000000000004
Cs2InCl5O,2.6236
Na2HoTa5O15,2.6236
RbTi2(PO4)3,2.6236
Na4CaTaSi2PO12,2.6236999999999995
Cs3NO4,2.6236999999999995
K3GaO3,2.6237
BaMg6CrO8,2.6238
Mg30CdCO32,2.6238
Tl3FeF6,2.6238
Li3VPCO7,2.6239000000000003
LiFeF3,2.624
Li2Fe(SiO3)2,2.624000000000001
KMg30SbO32,2.624000000000001
Ti2Ni(PO5)2,2.6241
NaLaHfSnO6,2.6241000000000003
Na6NbIn3Si2(PO6)4,2.6242
CaCr2O7,2.6242
S2I2O11,2.6242
VP2H4O9,2.6242
SrGe7N10,2.6242
Li2PWO6,2.6243
Ba6Y2Ti4O17,2.6243
Sr2CaMoO6,2.6243
CoP2H18(NF2)6,2.6244
CaGe7N10,2.6247
NaHfNbSi2SO12,2.6247
Cs2CeAgBr6,2.6247
Na5Ca2In2P3(SO8)3,2.6247
FeBi(SeO3)3,2.6249
Na3SbP2O9,2.625
Ba5Y3I19,2.6251
CoH6(CO3)2,2.6252
BaGe7N10,2.6252000000000004
Tm2Ti2O7,2.6253
BaNdNiSbO6,2.6253999999999995
Na7Ta2Zn2Si3(PO8)3,2.6254
Nb2Zn2NiO8,2.6258
BaSr2Y6O12,2.6259
MgCr8Fe3O16,2.625900000000001
Sr10Mg5Mo(W2O15)2,2.626
LiCoPO4,2.6261
CaPbI4,2.6263
TaAsO4,2.6264
Li2CoSiO4,2.6265
Na5Hf2Ti2Si3(PO8)3,2.6265
NdTa3O9,2.6265
NaH4CS2N3O2,2.6265
Na10Ti4Si9Sn4(SO16)3,2.6265000000000005
Li3CrPCO7,2.6266
Ga2WO6,2.6266000000000003
K2Co2(SeO3)3,2.6268
BaZr2SnO6,2.6268
Na3GaSiGe(PO6)2,2.6269
Na2Al2S3(Cl4O3)2,2.627
Li6Co5(P2O7)4,2.627
Li3CrBAsO7,2.627
Na15Ca2Nb10Si15(PO24)3,2.627
Li3Mn2Fe(BO3)3,2.6271
W(NF2)3,2.6271000000000004
Li2FeSiO4,2.6273
Rb2V(PO4)2,2.6275
Ca(GaS2)2,2.6276
Na2CrO4,2.6276
K2Ba(SO)12,2.6279
Ho2SiSO4,2.6279000000000003
BaMg30FeO32,2.6279000000000003
Tm2MgW2(ClO4)2,2.6281
Na2Ta3GaSi4(SO12)2,2.6281
Li3Al2FeO6,2.6281000000000003
As4H6(CO)3,2.6283
LuTa3O9,2.6285
Na4VS3O13,2.6285
KSmP2S7,2.6285000000000003
Fe4OF6,2.6285000000000003
Na2Ta3InSi4(SO12)2,2.6287
Li2Ti4Ni(PO5)4,2.6288
CuH6C2SeCl,2.6288
NaZnAsO4,2.6289
Li2Ti2NiO6,2.6289
Hg3(BO3)2,2.629
ZrPbO3,2.6291
Li2CoP2O7,2.6292
CsSbS6(O3F)6,2.6292
Ga8(Pb3O7)3,2.6293
Al2ZnS4,2.6294
Si2Pb3O7,2.6294
LiFeF4,2.6294
BaSbF7,2.6294
Y7(O2F3)3,2.6295
Na2GaGe(PO4)3,2.6296
Li7H5N4,2.6296
Ti(WO4)2,2.6298
Y3Ga3(FeO6)2,2.6298
Bi3BrO4,2.6298000000000004
Li2CrSiO4,2.6298000000000004
NaCoPO4,2.6299
Na3FeH10C6O17,2.6301
Co2PClO4,2.6302000000000003
LiFeSiO4,2.6304
Li4Fe3OF11,2.6304
MnTlF3,2.6304
BaCaMg30O32,2.6304000000000007
Na2Li4Co2C4SO16,2.6305
VAs2H4O9,2.6305
ZnH8(CO2)4,2.6306
CsAsO3,2.6306
CaPbI4,2.6306000000000003
LiVSiO4,2.6307
BaSm2PtO5,2.6307
Li2MnF6,2.6308
LiCaVF6,2.6309
KBiF6,2.631
HfTiP2SO12,2.6311
K2MoCl5O,2.6311
LiFeBO3,2.6311
Ni(IO3)2,2.6311000000000004
LiFeSiO4,2.6312
Na3AlSi2SnSO12,2.6314
MoH2Cl2O3,2.6314
ScClO,2.6315
SrGd2Sc2O7,2.6316
Na9Ca10Ta2P3(S5O24)3,2.6317
Ca3Ga2(SnO4)3,2.6319
ScH6Br3N2,2.632
LiFeSiO4,2.6321
ClF3,2.6321000000000003
SrSmHfCrO6,2.6321000000000003
BrO2F,2.6322
SrLa4TiAl4O15,2.6323
Li2CoGeO4,2.6323
Li2Ti6PbO14,2.6324
LiGd(SO4)2,2.6325
Ti2Ni(PO5)2,2.6328000000000005
Na5Ga3Ge(PO4)6,2.6329
Mg14VCO16,2.6329
Li6V5(P2O7)4,2.633
Pb3Se2(IO3)2,2.633
LiMnBO3,2.633
NaNbAl(PO4)3,2.6331
NaLaZrSnO6,2.6331
ScPaO4,2.6331999999999995
Na3NbAlSi2PO12,2.6333
Pr2P3H5WO9,2.6333
Nd5Te7MoCl3O23,2.6333000000000006
Mg2MnNb2O8,2.6333999999999995
Li3Cr(PO4)2,2.6333999999999995
Sr4Al6CrO16,2.6334
Li2Co(CO3)2,2.6334
Sr3Ti(GaO2)10,2.6334
PrInO3,2.6335999999999995
Ti6In2Si2P12O49,2.6337
Li3Mn2Fe(BO3)3,2.6337
LiFeSi3O8,2.6337
HoCrTeO6,2.6338
Mg(SbO2)2,2.633800000000001
LiCr4(PO4)3,2.6339
In2WO6,2.634
RbHg5Cl11,2.6342
Na6MgSi2Sn3(PO6)4,2.6342000000000003
Ba2V(SiO4)2,2.6343
Cs2NiO2,2.6343
CaLaGa3S6O,2.6344
Na6Mg7Ge(SO4)12,2.6344
TiP4H8N2O13,2.6344
LiP3(WO6)2,2.6345
Na2PS3,2.6345
V2ZnH18(N3O5)2,2.6345
ZrTi(PbO3)2,2.6348000000000003
ZnBi6P2(O7F)2,2.6349
Cu3As2H16C16Br3(NO)2,2.635
Ca2TaCrO6,2.6352
FeMo2H4NO8,2.6352
Ba3MgSb2O9,2.6352999999999995
BaSrI4,2.6353
Na7Fe4P9O32,2.6353
NbAsO4,2.6353
Cs3As2Cl9,2.6355
Rb2ScInCl6,2.6355
Li2HN,2.6355
Ba4Ga2S7,2.6355000000000004
SrCaMg14O16,2.6355000000000004
ZrPbO3,2.6355999999999997
KHgC2IN2,2.6356
Pr2Sn2O7,2.6358000000000006
LiCoPO4,2.6359000000000004
Na14Al4Si9Ge4(SO16)3,2.636
Na10Zr2Zn6Si3(S3O16)3,2.6361
Ca(SiO2)6,2.6361000000000003
Ca3TiBe2Si2(As3O10)2,2.6362
LiFe2F5,2.6362
LiCoPO4,2.6364
Na6Ta4Si9Ge4(SO16)3,2.6364
Al2BiS4,2.6364
Na2LiAlH6,2.6364
KNaMg30O31,2.6365000000000003
Na15CaNb11(SiO4)18,2.6367000000000003
Sr6Mg(W2O9)2,2.637
Li3CoPCO7,2.6371
CsW3Br7,2.6371
MnP3H6NO7,2.6372
Ca3Al4CoO10,2.6373
CaZnAsHO5,2.6373999999999995
Li4Zn(PS4)2,2.6374000000000004
Mg3TcH7,2.6375
Na5NbO5,2.6375
Sr2Zn(HO)6,2.6375
NaNbGe3(PO4)6,2.6377
LiCo3OF5,2.6377
PrIn2Cl5,2.6379
Li2Ti3NiO8,2.6379999999999995
Na5Al3Si3Ge(SO8)3,2.6381
BP4(SBr)3,2.6382
K2YAgF6,2.6382
NdSBr,2.6382
KNdHfZrO6,2.6382000000000003
BaLa8Co(Si3O13)2,2.6382000000000003
KTaN2,2.6384
Na5Sc2SiSn2P5O24,2.6385
Ba2TaBiO6,2.6385
As2P2S7,2.6386
ZrNO6,2.6386000000000003
RbBiF6,2.6387
NaLiGe4O9,2.6387
Ta3Bi7O18,2.6388
CoSO4,2.6388
Li2Mn7F16,2.6388
Li2FeP4(H4O5)4,2.6388
Li7Fe(O2F)2,2.6388000000000003
Na6NbGa3Si2(PO6)4,2.6388000000000007
BaPrDyTiO6,2.639
NiH12(BrO7)2,2.6392
AgSb(S8F3)2,2.6392
LiCrPO4,2.6392999999999995
Ca3Ga4O9,2.6392999999999995
K3CrPCO7,2.6393
Na6Al3Fe3(TeO6)4,2.6394
Na3MgInSi(SO6)2,2.6394
Li8FeO5F,2.6396
ThBrN,2.6396
SmInO3,2.6396999999999995
Zr2Ti3(PbO3)5,2.6398
Rb2TeCl6,2.6398
ZnTe2O5,2.6398
V3Zn2GaO11,2.6398
Li2CoPHO5,2.6398
K4Ni7(AsO4)6,2.64
Na4Mg(BiO3)2,2.6401000000000003
BaTi6O13,2.6401000000000003
Ba7Nb4MoO20,2.6403
MgTa2(FeO4)2,2.6403
Nb3Fe(PO4)6,2.6406
YCuO2,2.6406
Na2TiSiGe(PO6)2,2.6407
Li5InO4,2.6407000000000003
Mg2SnO4,2.6409
Tl3PO4,2.6409
Cs3As2Cl9,2.6409
V2CdO6,2.6409
BaNb2Xe5F22,2.6409
LiCoPO4,2.6409
K2SrTi10O22,2.6409
Li2CoSiO4,2.6410000000000005
Li3Mn2Fe(BO3)3,2.6411
LuVO4,2.6411000000000007
BiOF,2.6413
Li8Mn7Fe(BO3)8,2.6413
KNb4Bi5O18,2.6414
LiFe2OF3,2.6416
Na14Ca4Ga4Si5S7O48,2.6416
HoBO3,2.6416000000000004
Li3Cr(PO4)2,2.6417
ZrTi2(PbO3)3,2.6417
Mg3(AsO4)2,2.6418000000000004
LiCr(PO3)4,2.6421
Rb2V(PO4)2,2.6422
Li2Co3(SeO3)4,2.6422
Na2ZnS2,2.6423
Mn3Zn(P2O7)2,2.6424000000000003
KMg30FeO32,2.6424000000000003
Li3Mn2Fe(BO3)3,2.6427
PaTlO3,2.6427000000000005
CrH36C12S6(ClO2)3,2.6428
NdTa3O9,2.6428000000000003
Ba2VI5O17,2.6429
Na2VCSO7,2.643
CaPrCrO4,2.643
CaPtF6,2.643
Ho2MgS4,2.6431
Mn3Si(O2F)2,2.6431
NdAl11O18,2.6431000000000004
Sc3TaO7,2.6432
Y3HoFe4(Ge2O7)4,2.6432
LaP3O7,2.6432
Te2MoW3(Se2S)2,2.6432
BaYSnSbO6,2.6432
TmCrTeO6,2.6432
CeMg6BO8,2.6434
Ba2H14C12S4N4O15,2.6438
Li6Mn(FeO3)2,2.6438
VNiH14(O2F)4,2.6441
Na2Co7H16(CO2)16,2.6442
Sm2MgMo2(I4O15)2,2.6443
SnPO4F,2.6443000000000003
Co2P2H4PbO10,2.6443000000000003
Cd3(PO4)2,2.6444
Cd2Ru(CN)6,2.6444
Li3Mn2Fe(BO3)3,2.6445
Li10Zn7(PS4)8,2.6445
Zn2SiGeN4,2.6445
Rb3BS3,2.6445
Na3ZnInSi(SO6)2,2.6446
P2WO8,2.6446
RbSi2BP(H3C)9,2.6448
MnSiO3,2.6449
BaGd2ZnO5,2.6449
Os(CO)4,2.645
MgTiN2,2.6450000000000005
Zr7(NO2)4,2.6451
Li3CoPCO7,2.6451
LiB13C2,2.6452
TeH14C2(NO2)4,2.6452
Cs2CoSiO4,2.6453
LaTaZnFeO6,2.6454000000000004
LiCoPO4,2.6455
BaCaI4,2.6456
Ba3Zn6Si4TeO20,2.6456000000000004
Li3VO3F,2.6457
KMo2Cl7O2,2.6457
Na2SrMnV2O8,2.6457
CsAg(NO3)2,2.6458000000000004
P4N3Cl11,2.6459
SCl4,2.646
Nd3NbO7,2.6460000000000004
Ba3CaNb2O9,2.6460000000000004
BaMg30MnO32,2.6461
Pr6S3(OF4)2,2.6461
VOF3,2.6463
PrTl(WO4)2,2.6463
LiMgBN2,2.6464
BaMn2Si2O7,2.6464000000000003
Sb4Cl2O5,2.6466
BaV2O6,2.6466000000000003
MgCo(Si2O5)2,2.6467
NaAs3H2O9,2.6467
La2NiO3F2,2.6467
KBa4Au(CO)4,2.6467
SrLi4NiO4,2.6467
Al2(SeO4)3,2.6467
La2Te6WO18,2.6468
Li2Cr2H4O9,2.6469
YCuO2,2.647
Na7Ti2Al2Si3(PO8)3,2.6471
KB6F6,2.6471
Fe2P2H6C2O13,2.6472
TiTlPO5,2.6472999999999995
TbWBrO4,2.6473000000000004
Li2CoPO4F,2.6473000000000004
Ba3YI9,2.6474
Na6Nb3In(SiO4)6,2.6475
Er2S2O,2.6476
MoH8N2O5F2,2.6476
Na10La4In4Si5S7O48,2.6476000000000006
KNdMnWO6,2.6477
Na2Nb2(P2O7)3,2.6478
KHg5Cl11,2.6479
NiTe(PO4)2,2.648000000000001
CoSnF6,2.6481
VZnBiO5,2.6481000000000003
Tl10Hg3Cl16,2.6482
BaH6C4O7,2.6483
Na2TiSi2GeSO12,2.6483
TaTeCl9,2.6483
BaLiAl3P2(HO7)2,2.6484
Li2CrP3O10,2.6484
CaNdHfCrO6,2.6485000000000003
Na10Y4In4Si5S7O48,2.6485000000000003
NaMg30FeO32,2.6485000000000003
PS2N(Cl3O2)2,2.6486
NaH8Rh(N2O3)4,2.6488
Na3Y2Sn2P5SO24,2.6488
Na2CrPCO7,2.6488
CsInH2(SeO4)2,2.6489000000000003
P4S9,2.649
Li2FeF4,2.6491
HfV2O7,2.6491
Nb2PbO6,2.6492
Re2H4O9,2.6495
ErCrTeO6,2.6495
Na4Co(MoO4)3,2.6495
Na4TaZnSi2PO12,2.6495999999999995
LiFe(Si2O5)2,2.6499
RbNdMnWO6,2.6501
Co3Se4(ClO5)2,2.6502
BaDySnSbO6,2.6502000000000003
Na14Ti4Si11Ge4SO48,2.6503
Ca16(SiN2)17,2.6505
CrH5O4,2.6506
Tm4Si2S3O7,2.6506
DyFeH8C6(N3O2)2,2.6507
Li6Mn(FeO3)2,2.6507
KBaNa2Ti3Fe(Si2O9)2,2.6507
NaLi5N2,2.6507
DyWBrO4,2.651
Tb(BiO2)3,2.651
LiCu2Si12(H3C)27,2.6511
Li2VF4,2.6512
LiCr(PO3)4,2.6513
Sm2NbInO7,2.6514
Rb3AlO3,2.6514
Na10Ca4Zr4Si5S7O48,2.6517
Ho2WO6,2.6517
SrTi3Al8O19,2.6519000000000004
PbC2(SN)2,2.652
CoH14C3NCl3O2,2.6521
HoInGe2O7,2.6521
LiCrSiO4,2.6522
FeMo2H7O11,2.6523
K2TlSbF6,2.6523000000000003