formula,band_gap (MP)
Li2CuPO4,0.9082999999999996
KGeBr3,0.9083
Ba2GdMoO6,0.9083
Gd5AgSe8,0.9084000000000004
K2Na2H16XeO14,0.9085
K2Si3SnO10,0.9085
Li2CuAsO4,0.9085
Ba2SmMoO6,0.9085
LiMnF4,0.9085
KTeO7,0.9087
LiCrPO5,0.9087
LiV3O5F3,0.9087
NaV2O4,0.9087999999999998
CuPH6NO5,0.9088
LiVOF3,0.9088
BaNdFe2O5,0.9089
LuTa6Br13O3,0.909
Sr4Mg(Fe2O5)2,0.9090000000000004
Mg2V2O5,0.9090999999999996
Li5Mn2CoO8,0.9091
Ca2I4O13,0.9091
Os5(CO)16,0.9092
Sr2HoUO6,0.9093
NbCl2O,0.9093
CeSe2,0.9095
Li4V3Ni3(TeO8)2,0.9095999999999996
Ba2Zn(P3O14)2,0.9096
ZnNiO2,0.9096000000000002
LiReO5,0.9097
SrLaMnMoO6,0.9097
Li7Mn11O24,0.9097999999999996
Ba7SnN6,0.9099
MgTiMn5(PO4)6,0.9099000000000002
LiMnPCO7,0.91
Ge2Pb5N6,0.9101
Li5Si2NiO8,0.9101
LiTe4H4(O3F4)2,0.9102
UN2O7,0.9102
NaZnP,0.9102
CeSe2,0.9102
Li9Mn2Co5O16,0.9102
LiCr4(PO4)3,0.9102000000000006
Mg6NbCoO8,0.9102999999999994
Rb3AsSe16,0.9103
Ca7PbN6,0.9103
Li2VSi4O11,0.9103
Li4V3P8O29,0.9103
BaNb6Bi6Pb2O27,0.9104
KGe,0.9106
Cs2Bi8Se13,0.9106
Ba2MnV2HO9,0.9106
Rb4MgH12(SeO3)8,0.9106
Na3CuO2,0.9106
V9PO25,0.9107
Na2CuSbCl6,0.9107999999999996
NaCo2O3,0.9107999999999998
Mo8O23,0.9108
Bi4O7,0.9108
Li2VCrO4,0.9108999999999998
LiV3O5F3,0.9109000000000004
MgV5O12,0.911
Li3V4(OF3)3,0.9110000000000004
HfMg14SnO16,0.9112
Ca(CoO2)2,0.9112
B40H51F3,0.9112999999999998
KNa7Pb2O7,0.9113
GdCuS2,0.9113000000000008
Nb3Cl7,0.9114
Li6V3P8O29,0.9114
CdC12(S2N3)2,0.9114
Rb2TeSe4,0.9114999999999998
Li7V3P8O29,0.9115
Rb3Ge4Au,0.9115
Li5Ni6(P2O7)4,0.9115000000000002
Ag7PS6,0.9116
InGaCuAgTe4,0.9116
Li4Mn3CoO8,0.9116
Li7Mn2(CoO4)3,0.9116000000000004
Li2NiO2,0.9116000000000004
KCu2H20N3(Cl2O)4,0.9117
Fe23O25,0.9117000000000002
Na2Mg(BiO3)2,0.9118000000000004
Li4V3P8O29,0.9119
AgClO2,0.9119
MnMoO4,0.9120000000000004
In2Bi4Pb4Se13,0.9121
Li8Mn2O7,0.9122
Li2CoOF3,0.9122
Cr2PO5,0.9123
Ca2Nb2CoO9,0.9125
LiCoP2O7,0.9126
MgV4O7F5,0.9126999999999998
SnSeS,0.9128000000000004
Sr14(SnAs4)3,0.9128000000000004
Li3Mn2CoO6,0.9128000000000004
Sr2Pr2CrNiO8,0.9128999999999996
KNd2CuS4,0.9129
Ti2N2O,0.9129999999999994
RbNb2PSe10,0.9129999999999998
Li8Ti6Mn7O30,0.9131
NaAuSe2,0.9131
Li4Co2OF7,0.9131
In3Ag3(HgTe4)2,0.9131
Rb16Sn16F47,0.9131999999999998
Li4V2Cr3Sn3O16,0.9131999999999998
Li5V3P8O29,0.9132
Li4V3Cr3O12,0.9132000000000002
Mg2NbN3,0.9132999999999996
Mg14FeCO16,0.9134000000000002
DyFeO3,0.9134000000000002
Li3MnCoO5,0.9135
NaV2O4,0.9135999999999996
Co3OF5,0.9136
RbCuO2,0.9136
CeSe2,0.9136000000000002
Tm2Pb2O7,0.9136999999999996
Li4Mn3O7,0.9137
AsRhSe,0.9137000000000004
CdIn2O4,0.9137000000000004
La2GeS5,0.9138000000000002
Li4V3P8O29,0.9139
SnCS(NCl)2,0.9139
MgMnTe2,0.9141
Li4V2OF7,0.9142
CeSe2,0.9142
Cs3Sb5O14,0.9143
Li9Mn2Co5O16,0.9143
Re3Br8Cl,0.9143
Sr2ErUO6,0.9143999999999995
Li(Fe2O3)4,0.9143999999999995
K2BrCl6F,0.9144
Sr4GeP4,0.9144
K10NbInAs6,0.9145
MgBi,0.9145000000000004
AsRuS,0.9146
MnP6(WO8)3,0.9146999999999998
MgCo2(NiO2)4,0.9146999999999998
Rb2TlAsI6,0.9147999999999998
NaBeH3,0.9148
Cr4OF11,0.9148
Li3V2(FeO4)2,0.9148
MgV4O8,0.9149000000000004
Mo2W(Se2S)2,0.9149000000000004
PaAgO3,0.915
Li3Mn3SiO8,0.9150000000000004
AgClO2,0.9151
Ca2CoO3,0.9151
Li3V2P4(HO8)2,0.9151
Zn11Fe25O48,0.9151999999999996
Li3MgNiO4,0.9152
Li2AgAs,0.9152999999999998
K6NbAs3O,0.9153
TlBSe3,0.9154
Cr4OF11,0.9155
Li7Mn2(CoO4)3,0.9155000000000002
RbAcTe2,0.9157000000000002
NdSeF,0.9158
MgMn3Zn2O8,0.9158999999999996
Sr8MgMn6O20,0.9159000000000002
Li4Ti2V3Ni3O16,0.9159000000000002
Li2MnVP2(HO5)2,0.916
NaTiSe4,0.916
LiVP2O7,0.9160999999999996
Li5Mn2CoO8,0.9160999999999996
Li5V3P8O29,0.9162
Li4B8H5O18,0.9162
Cd6(CoO3)5,0.9162
LiTlAg2,0.9163
K2BaLiCo(NO2)6,0.9163
HfCrAgS4,0.9164
Na4Y2Si3Sn2(SO8)3,0.9164
Na5Ni2P2(CO7)2,0.9165
RbTiPS5,0.9166
HgAsS2,0.9166999999999998
Na4TeH10(SeO8)2,0.9167
Hg4AsI5,0.9168
Ga2HgSe4,0.9168
MgFe4(OF)4,0.9168
HgN2,0.9168999999999996
Er2Pb2O7,0.9168999999999996
NbCu3Te4,0.9169
Na2NiPCO7,0.917
Cs4TlSbCl12,0.9171
Tm4MgTi2O10,0.9172000000000002
Mg14BCO16,0.9173
TlCu(PO3)3,0.9173
Ca2Ni3O8,0.9173999999999998
Cr4OF11,0.9174
FeS4N4Cl3,0.9175
MgSiGe3S5O24,0.9175
BaMgMnV2(AgO4)2,0.9175
Li4MnCo2O7,0.9175999999999996
Sn3SbSe2I5,0.9176000000000002
Sr3(SiAs2)2,0.9176000000000002
CaCrBiO5,0.9176000000000002
VCr(CuO2)2,0.9177
Na2CaGeP2SO12,0.9177
Ca(SiO2)5,0.9177
U2CuP2(HO)24,0.9177
Li4V3P8O29,0.9177
Li4Mn3SbO8,0.9177999999999996
Mg(Mo3O8)2,0.9178000000000002
Na3V5O10,0.9178000000000002
Zn(Bi19O30)2,0.9178000000000006
YMg6TiO8,0.9178999999999996
NaSnN,0.9178999999999996
LiV4O5F7,0.9179
Li9Mn2Co5O16,0.9179
MgFe12(OF)12,0.9179
K2BaCo(NO2)6,0.918
MgV3CoSn2(PO4)6,0.918
K2BaLiCo(NO2)6,0.918
LiV4OF11,0.9182
Li4Ti3Cr3(NiO8)2,0.9183
Li2AlNiO4,0.9184
Li7Co5O12,0.9184
Li3V3P8O29,0.9185
MgAs4,0.9186
Pd(IO3)2,0.9186
Li4Cr2P4H3O16,0.9188
Li4FeO3F,0.9188
SnH10C3SN3Cl2,0.9189
LiMnPCO7,0.9189
Ba2In2O5,0.919
Li3V4O5F7,0.919
Rb4TlSbCl12,0.919
Mo2C5N3O14,0.919
MgTiSnO4,0.9190000000000004
Tm6Mn(GeS7)2,0.9190999999999994
Ba2MgTi2O6,0.9191000000000004
InCu3PbSe4,0.9191000000000004
Na2MoAuF6,0.9192
BaYbAl2SiN5O2,0.9192
LiFe3O4,0.9192
Hg2IO,0.9192
KICl4O,0.9194
Ba7GeN6,0.9194
Zr2N2O,0.9194
LiV6O7F5,0.9194999999999998
MnSn4H24C8(Se5N)2,0.9195
KCuPdSe5,0.9195000000000002
Li6V3Ni(PO4)6,0.9196
LiV2OF5,0.9198
MgNb4VO12,0.9198000000000004
Li3VCr3O8,0.9199
NO3,0.9199000000000002
KMn2O4,0.9200000000000002
Li7Mn2(CoO4)3,0.9201
Na10La4Si7Sn4S5O48,0.9202
Ca3(CoO3)2,0.9202999999999996
Cs2CuH12(SO7)2,0.9203
Rb2BrCl6F,0.9203
Rb2S2NO6,0.9203
Er6Mn(SiS7)2,0.9204
Rb3P3O10,0.9204
Hg3(ClO)2,0.9204
Mg(ScSe2)2,0.9204000000000004
EuICl,0.9204999999999997
W3(SeS2)2,0.9205
V4O7F5,0.9205
SrZn2Fe16O27,0.9206
B6Pb,0.9206000000000004
Bi4S3N2,0.9206000000000004
MnInO3,0.9206999999999992
MnV4O12,0.9208
K2Te2Pd,0.9208
Na4Ca2SnP4,0.9208000000000004
BaTmCo4O7,0.9211
CeSe2,0.9211
TlHg3As2Cl3,0.9211999999999998
MgTe(WO4)3,0.9213
MgMn2(AgO3)2,0.9213
LiV6O7F5,0.9213
Mg(InN)2,0.9213000000000005
RbAgO2,0.9214
InAgSnS4,0.9214999999999997
Na3Ca2Mg10Si16(O11F)4,0.9215
Hf3N4,0.9216000000000006
LiVCrO4,0.9217
Cs2Pd(ICl2)2,0.9218
LiCuS,0.9218000000000002
SiO2,0.9219
Rb6Te2O9,0.9219000000000002
Te4Mo3WSe4,0.9219999999999996
Yb2Cu2O5,0.922
NaFe7(PO4)6,0.9220000000000002
Y2MnCrO6,0.9221
CrPHO5,0.9222
K8Zr6BeBr20,0.9222
YbVO2,0.9223
Nb2VZn2O8,0.9223
Li9Mn7O16,0.9223000000000005
BeSnP2,0.9223000000000008
Li7Mn4CoO12,0.9223999999999996
Li3Ni(BO3)2,0.9225
Li2VCoO4,0.9225000000000004
MgV4O7F5,0.9226
Cr4OF11,0.9226
LiCa10MgSb9,0.9226
WO2,0.9226
CaLa3Mn4O10,0.9227
Mo2Cl8O,0.9227
PdCl2,0.9227
Mn4(P2O7)3,0.9227000000000004
NbAgO3,0.9227999999999998
VCrO5,0.9229
Li9Mn2Co5O16,0.9230999999999998
SbO2,0.9232
Mn5(OF3)2,0.9232
Na4Sc2Si3Sn2(SO8)3,0.9234
FeTeO5,0.9235000000000002
Li9Co7O16,0.9235000000000002
Rb3Mo2Br9,0.9236
Li2V3O6,0.9237000000000002
Ho6Pb2Se11,0.9237000000000002
BW4N9,0.9237000000000002
Y7ReO14,0.9237000000000002
Ni(H3Cl)2,0.9238
LiV2(OF)3,0.9239
Ba2MnSi2ClO7,0.9239000000000002
Zn5TeSe4,0.9239000000000002
CeSe2,0.924
Sm4MnS7,0.924
MgV4O8,0.9240999999999996
Yb3Sb4S9,0.9241
Te7As2F12,0.9242
Ca3V10O25,0.9242
Sr2Cr2O7,0.9243
Li4MnCo2O7,0.9244
Ba6Mg(P2O7)3,0.9244000000000004
RbSe,0.9245
CaZn2(PO5)2,0.9245
Na4In2Si3Ge2(SO8)3,0.9246
KTlBr3,0.9246
LiP3(WO6)2,0.9246000000000004
Mg2V3O8,0.9246000000000004
Nd12Si5Se28,0.9246000000000004
ZnCoO2,0.9246999999999996
MgHg2(BiO3)2,0.9247
BaV4ZnO8,0.9247000000000004
LiEr2Tl2(WO4)4,0.9247999999999998
Na(CO)3,0.9248
LiAgF4,0.9248
K2LiCuF6,0.9248
Li7V3P8O29,0.9248000000000004
Sm2Fe2O5,0.9248000000000004
KSNO4,0.9249
RbDy2CuSe4,0.9249
Li2Fe(CoO3)2,0.9249
Y5Mg(MoO6)2,0.9251000000000004
Sr7HfN6,0.9251999999999998
Li9Mn7O16,0.9251999999999998
CdPbS2,0.9252000000000002
SbRuS,0.9252000000000002
Ti2Fe4O9,0.9252000000000002
HoCu(WO4)2,0.9253
Li9Mn2Co5O16,0.9255
LiAl2V4O8,0.9255999999999992
MgV2Cd2(CuO4)2,0.9255999999999998
Se2NO6,0.9256
Li2V3(OF)4,0.9256
Ti2N2O,0.9256000000000002
Os(OF)2,0.9257
Fe3O4,0.9257000000000004
Bi3BrO4,0.9257999999999996
SiW12C16(NO10)4,0.9258
TiCu2O3,0.9258999999999996
Cs8Ga11Cl,0.9259999999999996
VCuO3,0.926
BaSe3,0.9260000000000002
Ba2LiV2(Si2O7)2,0.9260000000000002
CaAs3F15,0.9261
La2MgCo2Sb2(PbO6)2,0.9261999999999996
Ca2S2O9,0.9262
Li2TiCr3O8,0.9263
BaMgTiO3,0.9263000000000003
Na2MgNb2O6,0.9264
SmMo5O8,0.9265
La5Sm3V2Cr6O24,0.9265000000000008
CeSe2,0.9265999999999996
MgCo3NiO8,0.9266
Li9Mn2Co5O16,0.9267
UAgF6,0.9267
Sr(IO)2,0.9267
Bi2TeSe2,0.9267000000000004
NaMgFe5O8,0.9268
K3Zr6BeCl15,0.9268999999999998
LiMn2V4O8,0.9269999999999996
BiI,0.927
Mn2Sb2H8S5N4,0.9270999999999998
YbH12(ClO2)3,0.9271000000000004
TlPAuSe3,0.9271000000000004
Ba2MgCoWO6,0.9271000000000004
LiMn(CO3)2,0.9272
RbTaGeS5,0.9272999999999998
LiCoCO4,0.9274
NiPO4,0.9274
CeSe2,0.9274999999999998
Li3NiO3,0.9276
Rb2Te2Pt,0.9276
MnFeBO4,0.9277000000000002
AuXeF9,0.9278
Ba2CaGa2CuF14,0.9278
Re(Cl2O)2,0.9278000000000002
Si60Te13P32Se3,0.9278000000000004
ScTlO3,0.9279999999999996
MgCo5NiO12,0.9279999999999996
Li5V3P8O29,0.928
MgTi3V5O16,0.9280999999999996
Cr4OF11,0.9281
NaMgFe5O8,0.9282000000000004
Zn11Cu(MoO4)12,0.9283
Ca(AgO2)2,0.9283
Cs3Mo2I9,0.9283
InAgAu2,0.9284
Zn(MoO2)2,0.9286000000000004
Cs3CoI5,0.9287
MgTiV3O8,0.9287000000000004
Li3Co2Si3O10,0.9287999999999998
Pr12Si5Se28,0.9289
Ba2CaCr2F14,0.929
Li5MnHO4,0.929
K3P2H10O7,0.9291
Li5V3P8O29,0.9292
Mg(InSe2)2,0.9292000000000002
Te3W2S,0.9293
In6Te10Pb,0.9293
Li7Mn2(CoO4)3,0.9293
RbCe(ClO)4,0.9294
PdI2,0.9294000000000002
BaCaInSbO6,0.9295
Re3(TeBr)7,0.9296000000000002
SrSmCoO4,0.9297
LiNi(PO3)4,0.9297
MnTe2H20(CN)4,0.9299
Li5Mn2CoO8,0.9299
MgV4O5F7,0.9299
Cr(C5O2)2,0.9299000000000002
Li2MnCrO4,0.9299000000000004
BaSiC,0.9299999999999996
LiMnF4,0.93
Sr2MnMoO6,0.9301
Zn5(SiN3)2,0.9302
HfCrAgS4,0.9302999999999996
Rb2TlSbI6,0.9303
Rb3TaF12,0.9304
Li5V3P8O29,0.9305
Mn(RhO2)2,0.9305000000000004
Li(CoO2)4,0.9306
Li7Mn5O12,0.9306
YNi(WO4)2,0.9307
Ba3(InN2)2,0.9307000000000004
Sr2MgZn2Sn2(PO4)4,0.9307000000000004
In10SnS14,0.9308999999999994
Ag5Au3S4,0.9308999999999998
Li8V3P8O29,0.931
Fe4C14O13,0.9311
MgV4O8,0.9311000000000004
NaAg3S2,0.9312
NaMg14CoO16,0.9312000000000004
Li3V2(O2F)2,0.9313
Li2NiBO4,0.9314
Li9Mn7O16,0.9314999999999998
Zn3CdSe4,0.9315
Nb2Tl4Se11,0.9315000000000002
CaMo2O5,0.9315999999999997
Cs3Ge4Au,0.9316
MgV2Cr4O12,0.9316
Na2SnAs2,0.9317000000000002
Cs2LaTa6(Br5O)3,0.9318
K3Mo2Cl9,0.9318
Li4MnCo2O7,0.9318
La3SmCr2(FeO6)2,0.9318
Rb2P2Pt,0.9318
Tm3B3O7,0.9318999999999996
MgV2(H2O3)2,0.9319000000000002
Na2Sr3P4,0.9320999999999996
Li3Mn(PO4)2,0.9321000000000002
Li5V5(NiO6)2,0.9321000000000002
LiCoOF2,0.9322
Ba2CuMo2F14,0.9323
LiCo5SbO8,0.9324
Zn(RhO2)2,0.9324
Li3V3P8O29,0.9325
Li2VO2F,0.9325
GeH6CI3N,0.9327
Li3V4O8,0.9327
Li4Mn3O7,0.9328
MgMn4(CoO6)2,0.9328000000000004
MgV2Cr2O8,0.9329
Na6Ca4Nb4Si5S7O48,0.933
MgTi2(SiO4)2,0.9330000000000004
Li3Ti2V3O12,0.9330999999999998
K9Fe2Se7,0.9331
Na2Al2Si3O14,0.9331
Mo2W(Se2S)2,0.9331
LiIn2CuSe4,0.9331
LiCoSnO4,0.9331
Al3P3H8C2NO13,0.9331
ScTlS2,0.9331000000000004
CaPbO3,0.9331999999999998
Li6V3P8O29,0.9332
CuH10C2(NO)8,0.9333
Cs2IrCl5O,0.9334
NaMnPCO7,0.9334
MgFe6(O2F)4,0.9334999999999998
Na18Mg8Nb4Si9(SO8)9,0.9335
Ho2Mn2O7,0.9335
Li3Mn(CoO3)2,0.9335
Li7PSe6,0.9336
Na8Te4W7O36,0.9336999999999998
LiMnPO4F,0.9336999999999998
CdAg2GeS4,0.9337
Li9Mn7O16,0.9337
Rb2YCuF6,0.9337999999999996
Li7Mn2(CoO4)3,0.9338000000000002
Os4C16NO12,0.9339
Sc2TlCu3Se5,0.9341
LiFeBr4,0.9341
Li2NiBO4,0.9342
ZnAg2GeS4,0.9342
CaMo3O7,0.9342
Mg6CuCO8,0.9342999999999996
Li5Fe3(SbO5)2,0.9343000000000004
ZnC4(N2O)4,0.9343000000000004
Fe5(OF4)2,0.9344
Li3V2P4(HO8)2,0.9344
Pd(Se3Br)2,0.9344
Sr2MnMoO6,0.9344
Na3Cu5O4,0.9344
Y6Mn(SiS7)2,0.9344
La3ScBeS7,0.9344
Sn3O4,0.9345
TbMnO3,0.9345
K2PtSe2,0.9345
NbAg7S6,0.9346
Pr12Ge5S28,0.9347
K3FeO2,0.9347
Li9Mn2Co5O16,0.9347000000000004
Ca6Sc(CoO4)3,0.9348
ZnCoO2,0.9348999999999998
NaCuP2O7,0.9349
Mg(MoO2)2,0.9349999999999996
NaMn3P3O13,0.9349999999999998
Li7Mn(OF)3,0.9351999999999998
Li3V2(CO3)4,0.9352
LiLa4Ni3WO12,0.9354000000000005
Ti2N2O,0.9356
LiNi(PO3)4,0.9356
Na2Co3O4,0.9356
K4HgP2,0.9356
Ba2UCrO6,0.9356999999999998
Na4Al3Si3H3O14,0.9357
Te2MoWSeS,0.9357000000000006
Mg(ScSe2)2,0.9358
Na4Ca3GeP2(SO6)4,0.9358
LiVCrO4,0.936
Na6Mg2Si3Ge2(SO8)3,0.936
Na3V5O10,0.936
K2CoPCO7,0.9361
Li32Ti3Cr13O48,0.9362
LiCoP2O7,0.9362
Li8TiMn3(PO4)6,0.9362
NaCu3O2,0.9363
Li2Mn3NiO8,0.9363
Co2P2O7,0.9363
Li3V24O58,0.9363
V2Bi8O17,0.9364
LiSm4V4O12,0.9364999999999996
Sr2ErMoO6,0.9364999999999996
CoSb3XeF23,0.9365
K8Nd3(Si4O11)3,0.9365
Ba5P4,0.9365
Li4MnCo2O7,0.9365
LiNb3InCl9,0.9366
MgFe4(OF)4,0.9366
MgV5(MoO5)5,0.9367
Li2MnO3,0.9367
Cs2TlSbI6,0.9367
MoW(SeS)2,0.9368
Li4Mn3V3(FeO8)2,0.9368000000000004
Li4Co3Sn5O16,0.9368999999999996
CsMg30SbO32,0.9368999999999996
RbCoNiF6,0.9368999999999998
Li9V3P8O29,0.937
Cr4OF11,0.9371
Li9Mn2Co5O16,0.9371999999999998
Li5V3P8O29,0.9372
Ba10MgMn6(O12F)2,0.9372999999999998
MgMn4Zn2O8,0.9373
MnFe3(BiO3)4,0.9373000000000004
CsEuBr3,0.9373999999999998
Ti2N2O,0.9375999999999998
Nb2Pb2O7,0.9375999999999998
Rb2O,0.9376
NaMnPCO7,0.9376
Li4MnCo2O7,0.9377
Al3P2H6O11,0.9378
Li3V4O8,0.9378000000000002
SmTa6Br13O3,0.9378999999999996
Li5V3P8O29,0.9379
HoZn(WO3)2,0.9379
Fe2Co3Sb3O16,0.9379999999999996
Li7Mn2(CoO4)3,0.9380000000000002
Mg30MnCoO32,0.9380999999999996
Hg2P3Br,0.9381
ZnCoF5,0.9381
MgTa2Te4Br10O,0.9381
Te4MoW,0.9382
Fe2C2O7,0.9382
Te3W2Se4(Cl4O)2,0.9382
BaNd2MgMn2O7,0.9382999999999996
MnCo3O8,0.9383
Ba2MgZnWO6,0.9383
Ca2Nb2SiS5O24,0.9383
MgV4(OF2)4,0.9384
Ca2YFeO5,0.9384
Li9Mn2Co5O16,0.9384
La6Sm2V5Cr3O24,0.9385000000000004
Te2MoW3(Se2S)2,0.9385000000000004
La4CoO8,0.9386
Ba2Y2Mg(Fe2O5)2,0.9386
Re3Se2Cl5,0.9387
RbNd2CuS4,0.9387999999999996
Te2W,0.9389000000000004
TeMoWSe2S,0.9389999999999996
Hg19(As5Br9)2,0.9389999999999998
CoH17C(NO)8,0.939
Ti2N2O,0.939
Mg6CuCO8,0.9390999999999998
Ga3NO3,0.9393
Mg(WO2)2,0.9393000000000002
Mg5(Si8Pt5)2,0.9393000000000002
LaTiNO2,0.9393999999999992
MgV4(OF)6,0.9393999999999998
Na2OsO8,0.9394
Na4Ca2Ta2Si3(SO8)3,0.9394000000000002
Li3V2P4(HO8)2,0.9395000000000002
Li2Fe3WO8,0.9396
LiBH4,0.9397000000000002
LaCoO3,0.9398
Ba2LaMn2O7,0.9398
Mn2P4O13,0.9399
Co2P2O7,0.9399000000000002
CaCr(GeO3)2,0.94
VPNO5,0.94
NbI5,0.94
CoPO4,0.94
BaGd2NiO5,0.9400000000000004
LiMnPCO7,0.9401
Bi2S2O,0.9401000000000002
TeMoWSe2S,0.9402
MgMn2Te2(MoO6)2,0.9402999999999996
Rb3Zr6BeCl15,0.9403
CsTm(NbBr3)6,0.9404
Zn(InS2)2,0.9404
MgCo2P2(O4F)2,0.9404
Rb4MgU4Cr4O24,0.9405
Y2V3O9,0.9405
MgMn(SbO3)4,0.9406
Pt(NCl)2,0.9407
Sr7Mn4O13,0.9408
KMgCo2(MoO5)2,0.9408
PrBiO4,0.9408999999999996
Rb2FeOF5,0.9408999999999998
Li3V3P8O29,0.9409
MgMn6Nb4O18,0.9409000000000004
Ti2FeNiSb2,0.940999999999999
SiO2,0.9409999999999998
Mg6MnCO8,0.9409999999999998
Li2VO2F,0.9411
Sb6Pb4S13,0.9411999999999994
Nd3Se3N,0.9412999999999996
Li4V3Sn3(SbO8)2,0.9413
BaLiP,0.9413999999999998
K2MgZn4P4(HO8)2,0.9413999999999998
Au2Se3O10,0.9414
LiTi3MnCr(PO4)6,0.9414000000000002
K3P5RuSe10,0.9415
Li3V3P8O29,0.9415
Li4MnCo2O7,0.9415
CsO3,0.9415
VCrP2(O4F)2,0.9416
LiVP4O13,0.9416
Nd5CuSe8,0.9416000000000002
RbBa4Sb3O,0.9417
Li2Mn3NbO8,0.9418
MgMnSiO5,0.9419
Ba2MgCrMoO6,0.9420000000000002
Tl2SiHgSe4,0.9421
Nb(SeBr)2,0.9421
LuNb6Cl13O3,0.9421
Sb26O53,0.9421999999999996
Ba5P4,0.9422
Li3Cr4P5O24,0.9424
Hf2Nb2Si3(SO8)3,0.9424
CaV6O11F,0.9425
Te2Mo3W(SeS2)2,0.9425
CsMn(PO3)4,0.9425
CaMnF4,0.9425999999999995
Na3Ca3AlAs4,0.9426
Te2MoWSe2,0.9427
Sr3(CoO3)2,0.9427999999999996
MgV4(WO6)2,0.9428
Li3Mn(Si2O5)3,0.943
MnSO6,0.943
LiAl2V4O8,0.9430999999999994
Li3Mn2O5,0.9430999999999998
CsRe6Se8I3,0.9430999999999998
K2Mo(CO4)2,0.9431
Zn(MoO2)2,0.9432
Li4TiMn3Cr2(PO4)6,0.9432
Li2Mn3(SiO3)4,0.9432
MnSO6,0.9432
Ca2MnAl2Si3HO13,0.9432000000000004
MnSeO4,0.9433999999999998
Co3NiO8,0.9434
Ca3(GaP2)2,0.9434000000000003
CoCIN5O4,0.9436
Li3Mn2O5,0.9436999999999998
Li2NiO3,0.9437000000000002
Li3Cr(CoO3)2,0.9438000000000004
CaCr4(PO4)4,0.9438999999999996
CoH22S2N5O9,0.9439
KPt2Se3,0.9439000000000002
BaMgV4O8,0.9439000000000002
POsS,0.944
AsS,0.944
Na2In4Si3Sn4(S3O16)3,0.9440000000000002
CeSe2,0.9441000000000002
Ca4Sn3S10,0.9441000000000006
Sr2FeCu(PbO3)2,0.9441999999999996
Cs3GaP2,0.9444999999999996
Ca4Sn3S10,0.9444999999999996
Ba11W4O23,0.9446
Hg6Sb5Br7,0.9446
Ca(Fe9O13)2,0.9447
Na2PdS2,0.9448
MgMn2O4,0.9448
CeSe2,0.9448
CoO2,0.9448
Na42Ca16Nb8Si21(S5O48)3,0.9449
K2Ti(OF2)2,0.9449
MgV5O10,0.9449
Li4Mn3(CoO4)3,0.9449999999999998
Cu2WO4,0.9449999999999998
CsFeBP2HO9,0.945
CeSe2,0.9451
CsLu(NbCl3)6,0.9451999999999998
Pr5CuSe8,0.9451999999999998
CeSe2,0.9451999999999998
Zn3InGaO6,0.9453
Li5V3P8O29,0.9454
Bi2B2O7,0.9454
K4ZnP2,0.9455
Rb7Th6F32,0.9456
Sr2Tl2O5,0.9457999999999998
Rb4CO4,0.9458
MgV12Zn6O24,0.9458000000000002
Na5GeP3,0.9459999999999996
V3CrO8,0.946
Nb6TlCl15,0.9461000000000004
Li2Mn2SbO6,0.9462000000000006
SnMo5O8,0.9463
Ga(MoS2)3,0.9463999999999996
Sn5W8O23,0.9463999999999996
Li4V3OF11,0.9464
Mn2OF4,0.9464
Li5V3P8O29,0.9464
KZrSnBiO6,0.9464
U(NO4)2,0.9464
SrCdAu2,0.9465
NbTlO3,0.9465000000000005
Sr3P4,0.9465999999999996
MgFe4(HO2)4,0.9466
Li7Mn2(CoO4)3,0.9467
Nb3Se5Cl7,0.9467
Li9Mn2Co5O16,0.9468
Hg2GeO4,0.9469
BN,0.9469999999999992
ReI3,0.9469999999999998
MgFe6(OF)6,0.947
MgSiPd2,0.9470999999999998
V4O7,0.9472
Na2FeO2,0.9473
Dy2Pb2O7,0.9474
Na2Li(NiO2)3,0.9474
Li7Mn5O12,0.9474999999999998
FeO,0.9475000000000008
Ce2SeN2,0.9475999999999996
Ca3Co2(WO6)2,0.9476
Na2SnSe3,0.9476999999999998
Ti6CCl14,0.9476999999999998
NaMn(GeO3)2,0.9476999999999998
NaMgCr3O8,0.9477
Pr2Ta3(SeO4)2,0.9477000000000002
K4Ge2(Se2O)3,0.9478
Li7V3P8O29,0.9478
MgMn2(SbO3)4,0.9478999999999996
AlBiO3,0.9480000000000004
SnHg7(As2I3)2,0.9482
Li10Mn(SiO5)2,0.9482
Rb7Th6F32,0.9482000000000002
Na2ZrSi3O10,0.9483
HfMgPt2,0.9484
BaMnP(O2F)2,0.9484
S3N2O3F,0.9485
MgMn2Zn2O6,0.9485
Ba2MnTeO6,0.9486
GaPNO5,0.9486
BaMn2Fe4O11,0.9487000000000004
Cs2As2Pd,0.9488
PdI2,0.9488
BaV(AsO4)2,0.9488999999999996
ZrNO6,0.9489
Cs2BrCl6F,0.9489
BaYMnCoO5,0.9489
Bi7(S3Cl)3,0.9489
BaErCuSe3,0.9489000000000004
Li3Cr4P5O24,0.9491
TeMo2Se3,0.9492999999999991
VCrO3,0.9493
Li3BiO4,0.9495
Li4V3P8O29,0.9495
LaCoO3,0.9497
ScInO6,0.9497
Rb4CO4,0.9499
ScAlN2,0.9499000000000004
Li5(CoO3)2,0.9501
Li2V3WO8,0.9502000000000002
MgP3W3O13,0.9504
GdFe3(BO3)4,0.9505
CsHgCl3,0.9505
CdHg2SeO6,0.9506
HgAsC4Se3N,0.9506
Ag2PdCl4,0.9506
MgFe6(OF)6,0.9506
RbPrTiNbO6F,0.9506
LaMg2NiH7,0.9506000000000006
SrTiNb2Bi2PbO12,0.9508
CsSm2CuSe4,0.9508
Na8CoO6,0.9511
CrCo4SbO8,0.9511000000000004
VCrO3,0.9512
NaIn10CuS16,0.9512999999999998
VAgSeO5,0.9513
Er5Mg(MoO6)2,0.9513000000000004
Fe5(OF4)2,0.9513999999999998
NaSmMnWO6,0.9514000000000004
CoH16C4(NCl2)2,0.9515
K2PAu,0.9515
K2RuO5,0.9515
SrMnO3,0.9515000000000002
Zn4CdSe5,0.9516
SrInGaWO6,0.9516999999999998
YbMgSe3,0.9517
PtBr3,0.9518
SrCrSnBiO6,0.9519000000000002
CeSe2,0.952
Na10Mg4Si5Sn4S7O48,0.9520000000000004
Ca2CoO3,0.9521
Ca7(ZnN3)2,0.9521000000000002
MgZn2(CoO3)2,0.9521000000000002
CsMg6BO7,0.9522000000000004
Sr5Cr3ClO12,0.9522999999999996
CaMn6O5F7,0.9524
MgTi2(Fe2O5)2,0.9526
Mg6AlFeO8,0.9527
Na4Sr2SiP4,0.9527
CeSe2,0.9528999999999996
NaUF6,0.9529
KMnO2,0.9530000000000004
Na6Ca2Ti6Si5S7O48,0.9530999999999998
CoPO4,0.9531
Li4Ti3Mn2V3O16,0.9531
Cs2AgMoCl6,0.9531
KFeBr4,0.9533
Gd2MgSe4,0.9533999999999998
LiFe5O5F,0.9533999999999998
Li3Cu5O4,0.9533999999999998
MgCrO3,0.9534
Li10Mn3Cr3(CoO8)2,0.9534000000000002
NaMgN,0.9534999999999996
RbZr6CCl15,0.9535
CsSbTeO6,0.9535999999999998
CuIO4,0.9536
Na10NbGaAs6,0.9536
Fe6O5F7,0.9536999999999998
Na3MnO3,0.9537
Tl2SnS3,0.9537
Yb2MgCr2O8,0.9537000000000002
Li8CoO5F,0.9538999999999996
Li7Mn5O12,0.9539
BaCrSnBiO6,0.9540999999999996
CoH12C2(I2N)2,0.9542
Li9Mn2Co5O16,0.9542000000000002
MgZn2(FeO2)4,0.9544
Gd2PbS4,0.9544999999999996
MgFe6O7F5,0.9545
Zn4InGaO7,0.9546
NaMgAs,0.9547999999999996
LiMnP3HO10,0.9548
Na2V2(PO4)3,0.9549
MgV4(PbO6)2,0.9549999999999998
Ba2MgCr2CuF14,0.955
LiBi3PbWClO8,0.9550999999999998
MnAlO3,0.9551000000000008
Li3Cr4P2O8F9,0.9551999999999998
Na2MgV2Cd2O8,0.9552
Li7V3P8O29,0.9552
Cd2Hg2H(SeO5)2,0.9552
Na6Mg(CoO3)2,0.9552
SmNb6Cl13O3,0.9552000000000002
MgTiV3O8,0.9552999999999998
Li7Mn5O12,0.9553000000000004
Rb2SiAs2,0.9554999999999998
RbGd2CuS4,0.9555000000000002
Tb2Pb2O7,0.9557000000000002
Ba2MnSe3,0.9558
K6PdSe20,0.9558
Li6Mn3CoO10,0.9559000000000002
Cs2As2Pt,0.9559000000000002
CaMnO2,0.9560000000000004