formula,band_gap (MP)
Li9Y(NiO4)2,2.3789
MgGe7N10,2.3789
K2SmCuCl6,2.3789000000000007
Na6ZnSi2Ge3(PO6)4,2.379
MgTiNb2(PbO3)4,2.3790000000000004
LiFe(Si3O7)2,2.3794000000000004
Sr10Mg5Mo4WO30,2.3795
Rb3SbO3,2.3795
Nb2Hg3S(O2F5)2,2.3796
Rb3SbI6,2.3797
HoFe3(BO3)4,2.3798
Sn(SO4)2,2.3798
LiCr6P7O24,2.3798
LiGaI4,2.3798
Mn3Al2(GeO4)3,2.3798000000000004
Na4Y3Nb(PO4)6,2.3798000000000004
Ba3Ho2(PS4)4,2.3799
Na2MnH4(SeO5)2,2.38
Li3Fe2(PO4)3,2.3801
Na2Nb8Si9(SO16)3,2.3801
MgO2,2.3801
LiCoPO4,2.3802000000000003
Tm2ZnS4,2.3802000000000003
HgH9C3SI3,2.3803
Na9Ca5Ta7(PO4)18,2.3804
Na3SmTi2Nb2O12,2.3804
Li2Co2(SiO3)3,2.3804000000000003
NaMoO2,2.3805
Mg6FeNiO8,2.3805000000000005
PH5N2O3,2.3806000000000003
Ba3Tb2WO9,2.3808
K3Nb3(BO6)2,2.3808
GeBi2O5,2.3809
Cs2KInBr6,2.3809
BaCr2O7,2.381
Na3Sc3NbP5SO24,2.3812
UH12(NO7)2,2.3813
Cs2NaCeI6,2.3813
Nb5Zn(PO4)9,2.3813
Li2Ti4Co(PO5)4,2.3814
Li2NiP2O7,2.3814
CaLa4Ga2(FeO6)2,2.3814
Li2Mn3(P2O7)2,2.3814
Ba3Te2O9,2.3816
CrH10SNO10,2.3816
HgHClO4,2.3817
SmPtF7,2.3817
NaVN2,2.3818
RbNaH2,2.3818
Li2V(PO4)2,2.382
Na2FePCO7,2.3822
Ba2Sb2O5,2.3822
Na6MgNb5Si6(PO12)3,2.3822
Li6CrFe3(PO4)6,2.3823
H4C(N2O)2,2.3823
ErSbO4,2.3824
Na3MgTaSi2SO12,2.3825000000000003
KNaMg30O31,2.3825000000000003
KGaGeS4,2.3828
Na2Ca2Zr6Si3(S3O16)3,2.3829
Ba(NO2)2,2.3829
AgBrO3,2.383
SrSiO3,2.3831
Li2CoSiO4,2.3831
Li10Si(PS6)2,2.3831
Na3AlSe3,2.3831
Ca3Fe2(SiO4)3,2.3833
Fe(PO3)2,2.3833
Ca2TaN3,2.3835999999999995
La3NbP2(SO6)4,2.3836000000000004
LuVO4,2.3837999999999995
Mg(BiO2)2,2.3839
TbPaO4,2.383900000000001
Cs3B12AsF18,2.384
Ba3Mo2(P2O9)2,2.384
NaLa2TaTi2O10,2.3842
Pr3Sc2(FeO4)3,2.3843
Sr2CuClO2,2.3843
Na4Nb3AlSi4(PO12)2,2.3843
V2H38S4(N2O9)3,2.3843
LiFe2O2F3,2.3844
LiLaHfTiO6,2.3844000000000003
BaNd2In2O7,2.3845999999999994
K2NaIrF6,2.3848
NaCa3Fe4(SiO3)8,2.3848
K2Li(H2N)3,2.3848000000000003
HgH2NCl,2.3849
Li2Sn(BO3)2,2.385
Na10Mg3Sn5(PO4)12,2.3851
K2CrH2Cl5O,2.3851
Co(HO)2,2.3852
Ba2ZnMoO6,2.3852
LiMo(PO4)2,2.3852
RuO4,2.3853
Sr6Mg(W2O9)2,2.3854
Er2ZnS4,2.3854
Na18Ta8Zn4Si15(SO24)3,2.3854000000000006
LiMo8(P2O11)4,2.3855
Lu2ZnS4,2.3856
ZnCr2O4,2.3856
HfMg14CuO16,2.3856
AgH6C4(NO)2,2.3857
Na3TiAlSi(PO6)2,2.3858
Na3ScNbSi2PO12,2.3859000000000004
Cs2SnO3,2.386
Gd3As5O12,2.386
LiP3(WO6)2,2.3861
Ti3O7,2.3862
Tl2CrO4,2.3862
Te2MoW3(Se2S)2,2.3863
InH12C4Se2I3,2.3864
Tl2Mo3SeO12,2.3865
Na2Al2Si3(HO3)4,2.3865
SrFe3P4HO16,2.3865
TiNbBiO6,2.3865000000000003
Na3GaSi2SnSO12,2.3867
RbTi3NbO9,2.3867000000000003
Na3Fe2(PO4)3,2.3868
S8O,2.3868
Mg8Mn3O11,2.3869000000000007
CsNbN2,2.387
Na3La2Ti2P5SO24,2.3871
CuCClO,2.3871
MnSe2O5,2.3872
NbPCl8O,2.3872
FeHg2C6S2(NO2)2,2.3875
TeMoWSe2S,2.3875
Na5Sc3NbSiP5O24,2.3876
Ba3La2Ti2Nb2O15,2.3876
Ca3Al4CoO10,2.3877
BaTi(BO3)2,2.3877
NaHoTi2O6,2.3878000000000004
Tb2MgW2(ClO4)2,2.3879
Li4H6Ru,2.388
Ba3Y2WO9,2.3881
Pb3(BrO)2,2.3882
RbSn2Br5,2.3883
LiCoPO4,2.3886000000000003
Xe(OF)2,2.3888
Cr2(MoO4)3,2.3888
HfPbO3,2.3889000000000005
CsMg30SbO32,2.389
Li2MgTi3O8,2.3892
LiCrPO4,2.3892999999999995
ZnSn2(PO4)2,2.3894
Sc3Ge6N11,2.3895
Ca2As4(Xe3F14)3,2.3897
MgP4(Br3O)4,2.3899
Na2NbGaSi2SO12,2.39
Na3ScNbSi2PO12,2.39
NiSn(PO4)2,2.390000000000001
Sr2MgV2(Si2O7)2,2.3901
Li3Mn2Fe(BO3)3,2.3901
Na4YNb3Si4(PO12)2,2.3901
MnTe6O13,2.3901000000000003
Te2Mo3W(Se2S)2,2.3902
CaNiAs2O7,2.3902
Rb3NbO8,2.3903
W2O5,2.3903000000000003
RbNaCr2O7,2.3905
Na30Ta4Zn20Si9(S3O16)9,2.3905
K4MnCl6,2.3906
BaU(SiO4)2,2.3906
Na6Zn3GeP4(SO12)2,2.3906
K2Cd(NO2)4,2.3906
KHgH2Cl3O,2.3907
Sr2FeWO6,2.3908
MgFe2(SiO3)4,2.3908
Li5Fe5Si7O24,2.3908
Li5FeO4,2.3911
MgZn2Fe2(SiO5)2,2.3911999999999995
Nb3Te4ClO15,2.3912
KTiPCO7,2.3913
Li2CrP2O7,2.3913
ScGaO3,2.3913999999999995
NaYNb(PO4)3,2.3914
Na7ZnSi3Sn3(PO8)3,2.3914000000000004
Rb2U(N2O7)2,2.3915
BiCNO,2.3915
Mg14CrCoO16,2.3915999999999995
HfTiSi(SO6)2,2.3917
BaVZnP2O9,2.3917
P6Pb3Xe11F58,2.3919
Al2Cd(Si5O12)2,2.3919
LiVSiO4,2.3919
SnH6CNCl3,2.392
K3ReC4(N2O)2,2.3920000000000003
CsNdNb2O7,2.3920000000000003
Ag4C(NO3)3,2.3921
Pr2Mg(NiO3)2,2.3921
SrLiBS3,2.3921999999999994
Sr(ClO)2,2.3922
BaVZnF7,2.3922
Rb3ScI6,2.3922
Li2TiSn3(PO4)6,2.3922
Li2V3P4(HO4)4,2.3922000000000003
Ca6Br2N3Cl,2.3922000000000003
Ca2YBiO5,2.3923
Li2CoSiO4,2.3923000000000005
LiFe2OF5,2.3924000000000003
Na3Ca7Ta3Ti7O30,2.3925
BaVClO3,2.3925
MgV4O9,2.3925
Er2Zr2O7,2.3925000000000005
Li2CrP2O7,2.3926
Li2CoSiO4,2.3927
YAg(IO3)4,2.3928
Na2LaTa3Si4(SO12)2,2.3928000000000003
MgCr2(FeO3)2,2.3929
Cs2RbScI6,2.3929
Li5Fe3Ni2(PO4)6,2.3929
Ba10MgAs6(ClO12)2,2.393
K4PbO3,2.3931000000000004
Cr(PO3)2,2.3932
LiGa4(WO6)2,2.3932999999999995
Ca2ZrTiO6,2.3932999999999995
Co(HO)2,2.3933
Li3V5O14,2.3933
Lu2TeO6,2.3933
LiLa5Si4N10O,2.3934
Rb2CuBr3,2.3935
Li20Si3P3S23Cl,2.3936
Fe3Sb2(BrO)4,2.3936
SiSnO3,2.3936
Li8Mn7Fe(BO3)8,2.3936
LiMnF4,2.3937
K8UCr4(NO12)2,2.3938
Cr2H28C10N6O7,2.3938
KAsW2O9,2.3938
Li8Mn7Fe(BO3)8,2.3938
V2Pb4(Se2O7)3,2.3938000000000006
BiIO4,2.3939999999999992
CrPH12(CO)4,2.394
Ta4Ag2O11,2.394
Nd3Sc2(FeO4)3,2.394
KLaDySbO6,2.394
YMg6CoO8,2.394000000000001
MnC4NO5,2.3941
LiFeSiO4,2.3944
Ho2Mg2O5,2.3944
Na18Ca4Ta8Si15(SO24)3,2.3945
MgCr2O7,2.3945
K3ReC4(N2O)2,2.3945
Fe2PH2CO7,2.3945
KMg30CoO32,2.3946
K3HgN5O11,2.3947
BaCaVF7,2.3948
NbSbO4,2.3948
Na3SbS3,2.3949
Li2VPO4F,2.3950000000000005
Na6Sn2C4SO16,2.3951
USb2OF14,2.3951
Co5Te4Cl4O11,2.3952
Cs3Sb2Cl9,2.3953
LiCr(PO3)4,2.3953
Li2Mo4O13,2.3953
Na9Nb10Zn2Si9(PO8)9,2.3954
Na3V(SO)2,2.3954
HfGeP2SO12,2.3955
Li3Co(NO2)6,2.3955
Ga3BN4,2.3955
YGaN2,2.3956
BaH2N2O5,2.3958
Ba3(YI6)2,2.3958
Tb14Ti10O41,2.3958000000000004
Tb10Ti6O27,2.3959000000000006
ReS2ClO9,2.396
Na6Mg2Ta4Si6(SO12)3,2.396
FePH4NO4F,2.3960000000000004
ScBiO3,2.3961
NaSr4(SbO4)3,2.396100000000001
Ba6La2Fe4O15,2.3961999999999994
Rb2TlInCl6,2.3962
NdBS3,2.3963
KRb2InBr6,2.3963
Li3CrSi2O7,2.3964
NaErTi2O6,2.3964
P3Pb5IO12,2.3965
Li3VSi4(HO6)2,2.3965000000000005
K12Mo4S11Cl4O5,2.3966000000000003
Ba2GaSbS5,2.3967
K2TiCr(PO4)3,2.3967
KNa4GaO4,2.3967
H2C(NO)2,2.3967
Rb2Mo(SO)2,2.3969
Rb2ScTlI6,2.3969
Sn2H22S6N4O3,2.3969
Hg2Te4Kr3(O2F13)2,2.397
Na2Cr2H2O7,2.397
Ba3NbFe3(SiO7)2,2.3971
CsLiO,2.3972
Na3TlH24(ClO2)6,2.3972
K3NbO8,2.3973
MnNb8(FeO8)3,2.3973000000000004
UCr4(H3O4)6,2.3974
Ba3LiTi5(SbO7)3,2.3975
LaWN3,2.3975
Sr2FeWO6,2.3975000000000004
Na7CaIn3Si3(SO8)3,2.3976
RbFeBP2HO9,2.3976
UH24C8N2(Cl2O)2,2.3977
H6CN4O3,2.3977000000000004
LiVBO4,2.3978
Nb2Zn2CoO8,2.3978999999999995
Na3Ca2Sn2P3(SO8)3,2.3979
V2SnO7,2.398
Sr5(IO6)2,2.3981
Li2VP4(HO2)8,2.3981
Mg2PHO5,2.3981000000000003
K2AgBiF6,2.3982
Na4Ti7O16,2.3982
AgClO3,2.3983
K2SbPO6,2.3983
Li4Zn(PS4)2,2.3985
Ba6Ti2Nb10Si8O51,2.3987
TlFeC3NO4,2.3987
Dy3VH3O8,2.3987000000000003
Li8Mn(O2F)2,2.3987000000000003
MgTiCr(PO4)3,2.3987000000000003
P2H9(CBr)3,2.3988
Mg6CrCO8,2.3989000000000003
Sb2H18C3(IN)9,2.3989000000000003
Nd9Al5S21,2.3989000000000003
Cs4Co3F10,2.399
MgCrO4,2.3991
Na5Nb2Ga2Si3(PO8)3,2.3991
K2HgC2S2(BrN)2,2.3991
Ge2S3Br2,2.3991
Ba5Tm8Ni4O21,2.3991
Li2MnFe(BO3)2,2.3991
Li2MnFe(BO3)2,2.3992
Na4La3Nb(PO4)6,2.3994
PH9PtC3Cl2,2.3994
Li2VH2OF5,2.3994
NaCaInWO6,2.3994000000000004
LiMg30BO31,2.3995
MnSiO3,2.3995
Li3V(Si2O5)3,2.3997
Na8Sc2Zn2Si3(SO8)3,2.3997
Sr5Re3BrO15,2.3998
Na14Sc4Si9Sn4(SO16)3,2.3998
RbLuS2,2.3998
Sr6Ta2O11,2.3999
Na9Sm(SiSe3)4,2.3999
Sb8Cl2O11,2.3999
KTbPrNbO6,2.3999
Li2MnFe(BO3)2,2.4
Li6CoO4,2.4
CuCSN,2.4001
Ti2Zn(PO5)2,2.4001
LiCoPO4,2.4001
Cs3Sb2Cl9,2.4003
Na6CaSn7(PO4)12,2.4003000000000005
Li9Al(NiO4)2,2.4003000000000005
LaBiO3,2.4003999999999994
DyPaO4,2.4003999999999994
Fe3P4(H3O5)4,2.4005
Cs3VH8(Cl3O2)2,2.4005
HC2N3,2.4005
VBi(PbO3)2,2.4006
LiCr(PO3)3,2.4006000000000003
Li3VP2H2O9,2.4006000000000003
Bi2WO6,2.4007000000000005
HC2N3,2.4008000000000003
KSNO,2.4009
LiMnBO3,2.4009
Li2H12C8N2O13,2.4009
K10CoMo7O27,2.401
FeWO4,2.401
HC2,2.401
SrV3O7,2.401
Li2V(CO3)2,2.4011
Li4TiFe2Ni3(PO4)6,2.4011
Na8Sc3NbSi4(PO12)2,2.4011
Sm4Si2Se3O7,2.4011000000000005
Li3Fe2(PO4)3,2.4012
YNb(TeO4)2,2.4013
UH25C12NO8,2.4013
Li5Fe7O3F13,2.4014
Bi7Mo2(AsO8)3,2.4014
Ba3Ti4Sb4O21,2.4014
Li3SbS3,2.4016
LiV6P7O24,2.4016
Na3YI6,2.4016
LiB12PC,2.4016
Na5NbIn3SiP5O24,2.4018
NbCl3O,2.4018
KMg14FeO16,2.4019
H12OsN5Cl3O,2.402
Li3Al2FeO6,2.4021
Ta2Ge2O7,2.4021000000000003
Na3CrSiCO7,2.4022
Ca4Nb2(SO4)9,2.4022
Ca2SiSe4,2.4024
Ca3W2O7,2.4024
Co3P4H8N2(O3F)4,2.4025
Na3YNbSi2PO12,2.4025
Na2Hf2Si3Ge2(SO8)3,2.4025000000000003
BaMg14BiO16,2.4029
NaNbIn(PO4)3,2.4031
LiV(PO3)3,2.4031
V2ZnPbO7,2.4032
Na5LiCo2P2(CO7)2,2.4032
RbNb3(TeO6)2,2.4033
NaCaLaSeO6,2.4033
BaSrCeZrO6,2.4033
Li2TiO3,2.4033999999999995
Ti(TlS)4,2.4034
H26Os2N12Cl4O9,2.4036
Pr2SiS5,2.4036
La2Ni2O5,2.4036
NaTmTi2O6,2.4036000000000004
H6C2SBr2,2.4037
BaV2P2(H4O7)2,2.4038
LiVF4,2.4038
Na5LiCo2P2(CO7)2,2.4040000000000004
TiPO4F,2.4042
Li5FeO4,2.4042000000000003
LiCoPO4,2.4043
Rb2Cr3O10,2.4043
Li2Co2(SO4)3,2.4043
SrCaLaNbO6,2.4044
Ba5SrNd2Fe4O15,2.4045
Li2Cr2O7,2.4046000000000003
Li3CoPCO7,2.4047
MgTi2MnO6,2.4047000000000005
Ba2C4O9,2.4048
Gd2NbInO7,2.4048
Na2CrAsCO7,2.4049
UH10N2O7,2.4049
KUN3O11,2.4051
Na2FePCO7,2.4051
Rb2ScInBr6,2.4052
Ca2AlBiO5,2.4052999999999995
MgPNO5,2.4053
KNbV2O8,2.4054
Na6Ta4Ga4Si7S5O48,2.4055
Zr3N2O3,2.4055000000000004
Na5ZnSiSn3P5O24,2.4056
KFeP2O7,2.4056
Rb2TiFe(PO4)3,2.4056
CaNd2Ti2ZnO9,2.4057
MnSnF6,2.4058
Er2Zr8O19,2.4058
Rb3W2N5,2.4058
KMnF3,2.4058
H11C2N11O3,2.4059
Na3YTiSi2SO12,2.4059
NbIn(PbO3)2,2.406
ZrV2O7,2.4062
Lu2S3,2.4062
CaGdTh(PO4)3,2.4063
Sr5W3O14,2.4063
Ba3Fe2Br2O5,2.4063
Sb5IO7,2.4063000000000003
LiFe2P5O16,2.4064
Li3CoPCO7,2.4064
Na5NbGa3SiP5O24,2.4067
La2SeO2,2.4067
LiFe(PO3)4,2.4067000000000003
BaLa2PtO5,2.4067000000000007
Mo2P2PbO12,2.4068
Zr3N2O3,2.407
C,2.407
Na2SnO2,2.4072
NaHfTi(PO4)3,2.4072000000000005
ZrVF6,2.4073
Mg(WO2)2,2.4073
CaNdZrCrO6,2.4074000000000004
Sr2BBrN2,2.4076
SbKrF7,2.4076000000000004
Na12Ca2Nb10Si15(SO24)3,2.4077
FeP3H5NO10,2.4077
RbClO2,2.4078
Na5Ti2Al2SiP5O24,2.4079
Li2CrP4(H2O3)6,2.4080000000000004
Na6Mg(SbO4)2,2.4081
BaPr2In2O7,2.4082
Rb4SnS4,2.4082
MgAl2(CoO3)2,2.4082
Ba3La3Ti4NbO18,2.4083
Li3CrPCO7,2.4083
K3InBr6,2.4083
NaLiHfWO6,2.4086
SrSmZrCrO6,2.4087
NbTlV2O8,2.4087
Li4CoNi3(PO4)4,2.4087000000000005
NaMn2Mo2H3O10,2.4088000000000003
Nd2Si2PbS8,2.4089
Gd2Ti2O7,2.4089
CaLaMnNbO6,2.4089
ErFe3(BO3)4,2.4089
Cs4Au6S5,2.409
Na2V3O7,2.409
Ba9Ca3La4(Fe4O15)2,2.4091
Na2CoP2O7,2.4091
Sr2LaI7,2.4091
H9C2N11O2,2.4091
Na7Sc2Nb2Si5PO24,2.4091
La5Ti4GaO17,2.4092
Na3Ti2Ga2P5SO24,2.4092
ZnAsWO5,2.4094
Na5Y3Sn(PO4)6,2.4094
Li3Fe2(PO4)3,2.4096
NaCaHfNbO6,2.41
K2MnV2O7,2.41
LiCrPO4,2.41
LiVP3HO10,2.4101
Ti2CdO5,2.4101
Ca4Al6WO16,2.4101000000000004
BaTeO4,2.4102
LiVF4,2.4102
Li2Si5Ni5O16,2.4104
LiLu2W2(ClO4)2,2.4105
Li3MnV(PO4)3,2.4106999999999994
Na2MnGaF7,2.4107
Li4CoO3,2.4108
Ba4Nd4Zn3PtO15,2.4109
Li3CrPCO7,2.4109
AgPb4ClO4,2.4109
FePO4,2.4109
K2Sn(H2N)6,2.4109000000000003
Li3CrPCO7,2.411
MgTi4(PO4)6,2.4111
La3NdCr4O12,2.411200000000001
LiSn(SO4)2,2.4113
Ge3Pb5O11,2.4113
FeSiP3O11,2.4113
NdCuO2,2.4115
Na3Sc2Ti2P5SO24,2.4115
KPbI3,2.4115
Na7Ca3SnP5SO24,2.4116
SXeO3F2,2.4116
Na2ZrZn3(SO4)6,2.4117
FeP3(H2O3)3,2.4117
RbMg30FeO32,2.4117999999999995
Na9Ca4Ta2(PO4)9,2.4117999999999995
KFe(MoO4)2,2.4118
Ba13Ca2Re9(ClO15)3,2.4118000000000004
MgAlAg(WO4)2,2.4118000000000004
UH12(NO7)2,2.412
ZrSiSn(SO6)2,2.4121
NaScSnP2SO12,2.4121
Tb9Al5S21,2.4122000000000003
Na9Mg5Ta7(PO4)18,2.4123
Ta2Mn4O9,2.412300000000001
Sn(PO3)3,2.4124
GdCrGeO5,2.4125
ThV4O12,2.4125
CsBaPS4,2.4125000000000005
Pr2Si2PbS8,2.4126000000000003
Ba2CaMoN4,2.4127
BaTbNbSnO6,2.4127
MgGa4P6(HO3)6,2.4127
Mn3Bi(CO)15,2.4128
BaMg14SnO16,2.4128
CaCr2F10,2.4129
Na6Ga4Si3(SO8)3,2.4129
Na5FeP2(O4F)2,2.4129
CdP2Xe5F22,2.4129
CsPbCl3,2.413
KYGeS4,2.4131
LiCoHSO5,2.4131
Na3Ti2Al2P5SO24,2.4131
NaMn2Mo2H3O10,2.4132
Mg(SbO2)2,2.4132
Na4NbIn3(PO4)6,2.4132
Na3NiF6,2.4132
SrMg3SiN4,2.4133
CsNaS,2.4134
Na14Zr2Zn6Si5S7O48,2.4134
KLiTe,2.4134
TiP2O7,2.4134
SN,2.4135
DyFe3(BO3)4,2.4135000000000004
InBr2,2.4137
Li3MnFeCo(PO4)3,2.4137000000000004
ScBiO3,2.4137000000000004
LiTa3O8,2.4138
Ba4InSbO8,2.4138
Ba(SO2)2,2.4139
Y6MoO12,2.414
Cs3Re3(SI)4,2.414
Li6ScFe5(SiO3)12,2.414
LiV4(PO4)3,1.7855999999999996
K4Nb8Si(P2O17)2,1.7856999999999998
Mg30AlNiO32,1.7857000000000005
Li2Co2C2O7,1.7858
Li2VF6,1.7858999999999998
CaLa2VO6,1.7858999999999998
Rb3NaRe2O9,1.7859
BaNb2O6,1.7859
Fe3(AsO4)2,1.7859
Ba2MgFeWO6,1.786
Na5Nb2Zn2SiP5O24,1.7860999999999998
DySeO3,1.7860999999999998
CaMnO2,1.7860999999999998
Cr3(FeO6)2,1.7861
YMn3Se2ClO8,1.7861999999999996
Na2ScAgF6,1.7862
La2Se2O,1.7862
Ba2UZnO6,1.7862999999999998
Ca(BiO2)2,1.7862999999999998
InI2,1.7863000000000002
La2MgMnZnO6,1.7863999999999995
W(ClO)2,1.7864
Na2VPCO7,1.7865
CaCo6(OF5)2,1.7866
ScAgO2,1.7866000000000002
V2Cd(PO5)2,1.7866999999999995
LiCoP2O7,1.7867
Ba3MgV2O8,1.7867999999999995
InI2Br,1.7868000000000002
NaTi2Zn2PS5O24,1.7868999999999997
KMnBr3,1.7869
SbSNCl5,1.7869
LiVCoO4,1.7869000000000002
MoAsO5,1.787
CsVWO6,1.787
Na2ZnSn3P4(SO12)2,1.7870999999999997
CsCoW(OF)3,1.7871
UCd3O6,1.7871
Sr3Sc2N4,1.7871000000000006
V3H6CNO7,1.7872
DyCrC6(N3O2)2,1.7875
Ca(BiO2)2,1.7876
LiVP3HO10,1.7877
YGaN2,1.7877
Li3U7(AsO7)5,1.7877
LiV(OF)2,1.7878
Cu3P8(S2Cl)3,1.7878000000000005
Nd2SiTeO4,1.7878000000000007
RbMg30BO31,1.7878999999999996
NbAgO3,1.7878999999999998
Tl2CuF3,1.7879
LiVF4,1.7879
Sr(DyS2)2,1.7879999999999998
BaY2PdO5,1.7879999999999998
Y3CuGeS7,1.7881
LiVF4,1.7881
Tl4SnS4,1.7881999999999998
BaSrNdBiO6,1.7882000000000002
Pr9Al5Se21,1.7883999999999998
BaCaDyBiO6,1.7884000000000002
Rb4Cu5Cl9,1.7887
BaFe2(P2O7)2,1.7887
Na2Li2V3P2O13,1.7887000000000002
BaFeBP2O9,1.7888
LiHg2Au,1.7888000000000006
CsGeBiS4,1.7889
Cs2NdCuI6,1.7889
Th(NF2)4,1.7889
TiSi3H30C10(N2Cl)2,1.7889
Tm2TeS2,1.7889999999999997
AlTlSe2,1.7889999999999997
Li2Cr3(CoO6)2,1.789
Li2FePCO7,1.7891
KMgP,1.7891
Fe6OF11,1.7891999999999997
Li5Cu(PO4)2,1.7892000000000006
Li3Mn2F9,1.7893
Cd(HO)2,1.7893
Na5FeO4,1.7893
SnH5CN2Cl3,1.7893
Li2FeO2,1.7893
CuAs2Pb8Cl5O9,1.7894000000000003
NaAu(S2O7)2,1.7895
SrCaVInO6,1.7895000000000003
K2TeSe3,1.7896
Ca(BiO2)2,1.7897999999999996
K4CO4,1.7898
Li3Cr(CoO3)2,1.7898999999999998
Li2V(OF)2,1.79
Ca2V3Ni2AgO12,1.79
Nb13AgO33,1.7900000000000005
Li2VCrP2(HO5)2,1.7900999999999998
Ti9SnO20,1.7902
Na2LuCuCl6,1.7902
Sr9Mn5Co2O21,1.7903999999999995
InSnBr3,1.7904999999999998
LiVCO4,1.7905000000000002
LiVOF3,1.7905000000000002
Sb3As2S14(IF8)3,1.7906
Na4GeSe4,1.7906
CaTiAsO5,1.7906
Rb2Sb4S7,1.7906000000000002
VP2PbO8,1.7906000000000004
ZnFeH4O2F5,1.7907
PICl6,1.7907
NaVCSO7,1.7907000000000002
CrGeSbO6,1.7907000000000002
YCuS2,1.7907000000000002
Li2VCrP2(O4F)2,1.7907000000000002
Na2PSe3,1.7908000000000002
BaSrYBiO6,1.7909000000000002
V2OF7,1.7909000000000002
Ce4ThO10,1.7909000000000006
SmZrNO2,1.791
KLiNiO2,1.791
NaCr3O8,1.791
TaP2Se2Cl5,1.7911
InBN2,1.7912
ScCu3PbSe4,1.7912
AsS6N5F6,1.7912
K9U6BiO24,1.7912000000000003
Li2CoSnO4,1.7912999999999997
CaMnGeO4,1.7912999999999997
Ca2Ti6N2O11,1.7912999999999997
TeW2Se2S,1.7913
LiFeSiO4,1.7914
SbS5N5Cl6,1.7915
SrCu(TeO3)2,1.7915
BaCaMnF7,1.7916
CdSiN2,1.7916999999999996
Mg14NiBiO16,1.7916999999999996
Rb2Cd(PSe3)2,1.7916999999999998
PtCl2,1.7917
P4S3I2,1.7917999999999998
CsNa3U4(MoO10)2,1.7917999999999998
WN18,1.7919
Na6Ta8Zn4Si9(SO8)9,1.7919
Li3Cr(BO3)2,1.7919000000000005
Ta2WO8,1.7921
Li2Cr2(SO4)3,1.7921000000000005
Te2MoWSeS,1.7922999999999996
Sr2IN,1.7923
Li2V(Si2O5)3,1.7923
P2SN6,1.7924
Cs5Nb2S4Cl9,1.7925
YbSBr,1.7925999999999995
MnCl2,1.7925999999999995
Cd7(P2Cl3)2,1.7926
NaPrSe2,1.7927
Ga2CoO4,1.7927
YBCO7,1.7928000000000002
Ba2YWO6,1.7928000000000002
Ca5(TiN3)2,1.7929
TeMoWSe2S,1.7929000000000002
Ho2MgMo2(ClO4)2,1.793
DyFe5Bi4O15,1.793
LiV3O8,1.793
V2Zn3(Si2O7)2,1.793
Te2Mo3W(Se2S)2,1.7930999999999997
CoTe(PbO3)2,1.7931000000000008
Hg3(SCl)2,1.7932
Mg30SiSnO32,1.7932000000000006
Li5Cu(PO4)2,1.7933
Mg2Ta2CrO8,1.7933000000000003
MgGe2(WO4)2,1.7935
NaSrCeBiO6,1.7935
SbC(N3Cl2)3,1.7935
CeZr7O16,1.7935000000000003
Ca5VN5,1.7935999999999996
Cs3B3Se10,1.7936
Ba2NdWO6,1.7938000000000005
K2CS3O,1.7940999999999998
K2InP2S7,1.7941
CaSO6,1.7942
Li2VCrP2(O4F)2,1.7942
K3V2(PO4)3,1.7942000000000002
InFeCoO4,1.7942000000000005
Na4V3O8,1.7942999999999998
Li5Fe3(OF5)2,1.7943000000000002
Li2CaV12O32,1.7944
Na3Sr7Ta3Ti7O30,1.7944000000000004
PCl5,1.7945
Lu2FeCoO6,1.7945999999999995
Na4MnAl3Si3O16,1.7946
Cr5O12,1.7946999999999995
K2RuNCl5O,1.7947
CsNaMg30O31,1.7947000000000006
Sr2ScBiO6,1.7949000000000002
C7F3,1.7951
Cs2Se,1.7952
Ca4Ni5(TeO6)3,1.7952999999999997
Na2H4PtC4Br2(N2O)2,1.7953
MgMn(SbO3)2,1.7953
Mg6AlCuO8,1.795300000000001
P3NCl12,1.7955
In2Ge2O7,1.7955
Li2VO2F,1.7955
CdCl2O,1.7956
OsC3I2O3,1.7956
MgZn4(Se2O5)4,1.7956
Bi2W3(CO)15,1.7956
Li4Cr7(PO4)6,1.7957
CeHfO4,1.7957
MgSc4(FeO3)4,1.7957999999999998
AgAsS6N4(OF3)2,1.7957999999999998
Na3V(H14O11)2,1.7959
MgFe4(HO2)4,1.7959
VH3(C2O3)2,1.7959
GaSe3N2Cl5,1.7959
RbNa5(WN3)2,1.7959999999999998
Dy2FeSbO7,1.7960000000000005
SbXe2F9,1.7960000000000005
La3CuGeS7,1.7961
Rb2PrCuI6,1.7961
CsAu2F7,1.7961999999999998
VPO5,1.7964
B12S,1.7964000000000002
SrTi4Bi4O15,1.7965
Te2Mo3W(Se2S)2,1.7965999999999998
BaTbNbSnO6,1.7967
Rb2Se,1.7968
UC4S2(NO5)2,1.7968000000000002
MgFe4(HO2)4,1.7968000000000002
Rb3H12N5,1.7968000000000002
HgB4O7,1.7969
Li3TiCr3O8,1.7969000000000004
SrNbFeSnO6,1.7969999999999997
RbFeO2,1.797
Li2VF6,1.7970000000000002
LiInO2,1.7970000000000002
Sm2FeSbO7,1.7970999999999997
LiV3OF11,1.7972
CsAgBr2,1.7972
TaTl(CuS2)2,1.7972
FeAg3F6,1.7972
BaSrPrBiO6,1.7972
Bi3O4F,1.7972
TiPb9O11,1.7973
Li2V2O5F2,1.7973
Cr4AgBiO14,1.7973
TePCl9,1.7973
SrV2(PO5)2,1.7973000000000003
KCaCeBiO6,1.7974
Sr2VInO6,1.7975
SrC2,1.7975
LaAuO3,1.7977
MgCr2O4,1.7977000000000003
MgAlCu(WO4)2,1.7977000000000007
Ba3Fe10SnO20,1.7977999999999998
AlCuO2,1.7978000000000005
H2Ru4(CO)13,1.7978999999999998
Sn(S4I)4,1.7979
LiFe4(BO3)4,1.7979
ScMnO3,1.7979999999999996
Sb2Te2O9,1.7980999999999998
Li3NbS4,1.7980999999999998
MgV2ZnO6,1.7980999999999998
V2AgP3O11,1.7981000000000005
UTl4C3O11,1.7982999999999998
Li4Nb2Cr3Fe3O16,1.7983000000000002
Na2Al2Ga2SiS5O24,1.7983000000000002
Mo(PO3)4,1.7985000000000002
Na14Nb2In6Si9(SO16)3,1.7987000000000002
Mg4SiN4,1.7988
K3AlH6,1.7988000000000002
FeO,1.7989000000000002
Mg6NbNiO8,1.7989000000000006
NaLa2Ga2PS5O24,1.799
CaFeSbAs2O7,1.7991
Te6MoW3S2,1.7992000000000004
Na10Ca2Ti6Si7S5O48,1.7993
Tl6SCl4,1.7993999999999994
BaSrTbWO6,1.7994
V2OF5,1.7996
Li2VO3,1.7996999999999996
BaMo4(PO8)2,1.7998000000000005
K2Ge2Se5,1.7999
KMg6BiO8,1.7999
La2MgCo2Sb2(PbO6)2,1.7999999999999998
LiHo2Cu(SiO3)4,1.7999999999999998
Pr2MgTi4O12,1.8
NaCaCeBiO6,1.8000999999999996
Na5H29(IO12)2,1.8001
Li2Cr3O10,1.8001
AlCo3Se2ClO8,1.8001000000000005
Li2VCr2O6,1.8001999999999998
V2PbO6,1.8001999999999998
Li3CoO2F,1.8001999999999998
Na3CaAl3Si3CO15,1.8002
Sr2PrBiO6,1.8002000000000002
H8RuN3Cl5O,1.8003
SiC,1.8003999999999998
Na3Mg3GePS5O24,1.8004
Dy3CuSiS7,1.800599999999999
Cs2ReF6,1.8006000000000002
Ce2Dy2O7,1.8007
MgCr4(WO6)2,1.8007
Li2VF5,1.8007
MgFeAs2O7,1.8007000000000002
NaV(PO4)2,1.8008
MgV2Zn2(SiO5)2,1.8008000000000002
Li2NbFe3O8,1.8009
YMo3F15,1.8009000000000002
Sc2Pt2O7,1.8009000000000004
Ba4Mg(Fe2O5)2,1.8011999999999997
K6U5As2O23,1.8012
Sr(GaSe2)2,1.8012
CoH18C2(NO)16,1.8012
NaFeF3,1.8013
Rb2YCuI6,1.8014
SnF3,1.8014
LiFe(PO3)4,1.8014
Mo6PbI14,1.8014
TaFeO4,1.8015
Na2MgTi3P4(SO12)2,1.8015
LiCrBO3,1.8016
NaSmSe2,1.8016
NaNb3(TeO4)4,1.8017
MnAs2S2(OF3)4,1.8017
C,1.802
Lu2PbSe4,1.8021
Ag3B5O9,1.8021
NaSr8LaTi10O30,1.8022
Na14Zn5Ge3(PO4)12,1.8023
NdMgCu(WO4)2,1.8024
Sr5(TiN3)2,1.8024
K9InSe7,1.8024
KMg6SbO8,1.8026
Cs2Se,1.8027
IF7,1.8027
CrPO4,1.8028
AlCrO3,1.8028999999999995
TlH12C4S2I3O2,1.8029
LiVO3,1.8029
CrPO4,1.803
BaSrDyBiO6,1.8030000000000004
MgFe2Si2BiO9,1.8031
Sr2UZnO6,1.8031
RbLiZn2O3,1.8032
SbSeCl9,1.8032
La2GaN3,1.8032000000000004
Mn2Ni6Te3PbO18,1.8032000000000004
Fe2P2H4NO8,1.8033
VPO5,1.8034
TlBS3,1.8034000000000003
Ca2Ti6N2O11,1.8035
NaGaSiGe(SO6)2,1.8035
ReNClF5,1.8035
K6MgO4,1.8036
Er2PbSe4,1.8036000000000003
BaSrSmBiO6,1.8037
Na2TeO4,1.8037
Li2MgMn3O8,1.8037000000000003
ScF3,1.8038
MgU(MoO4)4,1.8038
Na3FePCO7,1.8038
Al2W2O7,1.8039
NbInSi(SO6)2,1.804
Li3V4P2O8F9,1.804
Li2Cr2O7,1.804
VCl2O,1.804
Li4V3Ni(PO4)4,1.8040000000000005
Nb3Al(PO4)6,1.8041
V3Pb2O9,1.8042
LiV2P5O16,1.8042
LiVPHO5,1.8043
Ba4Li(SbO4)3,1.8044
LiCrP3H8O13,1.8044
Ti3Zn2O8,1.8044