formula,band_gap (MP)
Co(CO)4,2.6524
NaGa(GeO3)2,2.6524
KAlCo3Si3(HO6)2,2.6524
Te3SeO8,2.6525000000000003
Li2CrO4,2.6527
Mg2Ti3O8,2.6527
LiFeSiO4,2.6528
SrBi2B2O7,2.6528
Li3Mn2Fe(BO3)3,2.6528
SBr2O,2.6529
Na2MnPCO7,2.653
Sr2SnO4,2.6531
KLaCr2O8,2.6531
MnH9C4NO6,2.6532
LiCrPO4,2.6532
NdInO3,2.6533
KMg6MnO8,2.6534000000000004
CsGa3S5,2.6534000000000004
Co2H31S2N9O11,2.6535
MgCo(WO4)2,2.6535999999999995
TiSCl6O,2.6537
CaTi8Mn(PO4)12,2.6538
CoH4SeO5,2.6538
NaAl(PS3)2,2.6538
Li2Cr5(Si2O7)2,2.6538
Mg3Sn3(AsO4)4,2.6538
Na4LaTa3Si5SO24,2.6539
NbTl(PO4)2,2.6539
Nd5Te7WCl3O23,2.654
Cs3SbS3,2.654
Na3TbTi2Nb2O12,2.6541999999999994
Li3Mn2Fe(BO3)3,2.6541999999999994
Rb2YInI6,2.6542
Na10La7Nb(PO4)12,2.6542
Li2Cr3P9O28,2.6543
KNa2SbF6,2.6543
K2Tc9O27F11,2.6543
GdTiNbBi2O9,2.6544000000000003
KNaTiH2O3F4,2.6546
Mg3Ta6(FeO6)4,2.6546
Na6Hf2Mg2Si3(SO8)3,2.6546000000000003
ErTa3O9,2.6546000000000003
KLiMg30O31,2.6547
Li3MnF5,2.6548
Ce2(SeO3)3,2.6548
Li8Mn7Fe(BO3)8,2.655
FePH6(NO2)2,2.655
Na2Ti7O15,2.655
LiCrP2HO7,2.6551
Li5FeO4,2.6551
Na3ScSiSn(PO6)2,2.6552
Li4Zn(PS4)2,2.6555000000000004
Li4Mn3Fe(BO3)4,2.6556
InBO3,2.6556
Gd5Si2BO13,2.6556
RbAl(H2N)4,2.6557
BaLaMgNbO6,2.6557000000000004
KErP2S7,2.6558
Dy5Bi11O24,2.6562
LiFeSiO4,2.6563
ThTa2O7,2.6564
Li2Fe2(MoO4)3,2.6564
MgFe2Mo2(ClO4)2,2.6564
KMnF3,2.6564
Li8Mn7Fe(BO3)8,2.6565000000000003
Cs2KBiI6,2.6566
Zn3(BO3)2,2.6566
LiMg30SbO32,2.6566
Na3Ti2Nb2Si3(PO8)3,2.6566
Ca2Ta2CoO8,2.6566
LaAg(IO3)4,2.6566000000000005
Gd6Mo10O39,2.6567
LiNdTi2O6,2.6567
Na2Ca5Zr3(SO4)12,2.6567
Li6Mn(OF2)2,2.6568
Ti3NiBi2(PbO6)2,2.6568000000000005
Sr2LaGa11O20,2.6569000000000003
Ba5(GaS4)2,2.6572
Bi4Br2O5,2.6572
TlInF6,2.6572
Mg6NiCO8,2.6572000000000005
SrZnAsHO5,2.6572000000000005
Mg3(AlN2)2,2.6572999999999998
CaFe2Sb2(PO4)6,2.6572999999999998
NaZr3Nb(PO4)6,2.6573
Na7ZnIn3Si3(SO8)3,2.6573
Te3MoWSe,2.6573
KFeP4(H2O7)2,2.6574
Li8Mn3Fe5(BO3)8,2.6574
Li8Mn7Fe(BO3)8,2.6574
Na6Mg6Zr2SiS11O48,2.6574000000000004
LiNiAsO4,2.6574000000000004
Li8Mn7Fe(BO3)8,2.6575
Na2NiMo6H26(NO15)2,2.6576
Cs5Te3H4NCl18,2.6576
MoH20C7NClO6,2.6576
Tm2Sn2O7,2.6576000000000004
LiV2F7,2.6577
Sr2HfMgCrO6,2.6577
MnAl2O4,2.6578
Li4Mn3Fe(BO3)4,2.6578
H18RhC4N7O8,2.6579
Na8Y2Ti2Si5SO24,2.6579
Li4Fe(OF)2,2.6579
LiFe(SiO3)2,2.658
Na10In4Ga4Si5S7O48,2.6581
Na2Ta6Ga2Si7S5O48,2.6581
Rb2PtF6,2.6581
Na3GaGe3(PO4)6,2.6582
Ta2Fe4O9,2.6582
LiVOF3,2.6582
Na5ZrIn3Si3(SO8)3,2.6583999999999994
LiV2F7,2.6584
Li2H6PtO6,2.6584
Bi14SO24,2.6584000000000003
Bi32P10Pb3O76,2.6584000000000003
Li4Y3FeO8,2.6585
Ba3LaNb3O12,2.6586
Li2Fe2C2O7,2.6587999999999994
Ba3MgNb2O9,2.6589
K5U2O4F9,2.6589
Li8Mn7Fe(BO3)8,2.6590000000000003
LiCoSO4F,2.6591
GdB(SO4)3,2.6591
Na2Zr4Sc4Si3(S3O16)3,2.6592
AsN(OF3)2,2.6593
NaFeP3H7O13,2.6593
LiFeF3,2.6593
KNaZr2Be(PO4)4,2.6594
Li3Mn2Fe(BO3)3,2.6594999999999995
Na6Zr4Zn4Si3(S3O16)3,2.6595
Mo(NO2)2,2.6595
LiFe(SeO3)2,2.6596
Pr3NbO7,2.6597
Cs2TlGaCl6,2.6597
LiVF4,2.6597
Li17Cl5O6,2.6598
Y2MgBi2O7,2.66
Zr4MnO9,2.66
LiFe(PO3)4,2.66
LiCoPO4,2.66
BaNb4O11,2.6601
Li6Mn9(PO4)8,2.6601
LiFeBO3,2.6601
NaNbSi2SnSO12,2.6601
RbLiMoHO4,2.6602
H12C2S(N5O4)2,2.6602
FePH3CO7,2.6603
Li8Mn7Fe(BO3)8,2.6607
H15RhBr3N5,2.6607
MgFe2(NiO3)2,2.6607000000000003
CrP4O11,2.6608
Cs2Te2O5,2.6609000000000003
Li4Mn3Fe(BO3)4,2.661
K2CoP2WO10,2.661
GaH6C2SeI3,2.6612
Li5V(P2O7)2,2.6612000000000005
LiMnPO4,2.6613
Na2Nb4O11,2.6613
LaTa3O9,2.6613
RbFeP2(HO4)2,2.6613
Li4Mn3Fe(BO3)4,2.6613000000000007
Li6MnFe5(BO3)6,2.6616
Mg14SnCO16,2.6617999999999995
Zr6Nb2O17,2.6619
La2Th2O7,2.6619
Sb5O7F,2.662
Nb2Pb2Se4O15,2.6621
Ni7Te6(ClO9)2,2.6621
CaGeN2,2.6621999999999995
Li2AlFeO4,2.6622
Na3Zn2Ge2P3(SO8)3,2.6622000000000003
Ca2MnWO6,2.6623
S,2.6623
Ba10MgAs6(ClO12)2,2.6623
CrHgH18N6Cl5,2.6626000000000003
Ba2Ga6O11,2.6626000000000003
KPrHfZrO6,2.6627
CaHgH16(BrO2)4,2.6627
Al2CO,2.662799999999999
Mg4Se3S,2.6628
Na2GeTeO6,2.6629
ErFeGe2O7,2.6630000000000003
Nd2SeOF2,2.6633
SrP2(XeF6)3,2.6633
LiCrP2O7,2.6634
Cu(CO3)2,2.6634
VBO4,2.6635
LiVPO4,2.6635
Li4Zn(PS4)2,2.6636000000000006
Mg3ReH7,2.6637
Nd3Si2S8Br,2.664
LaNO4,2.6642
AlGaN2,2.6642
Ba2GdNbO6,2.6644
La2Sn2O7,2.6644999999999994
NiH24C6S6(N7O3)2,2.6647
Nd2MoO6,2.6647
CsFeP2H3CO10,2.6647
LiFe(PO3)4,2.6649
Fe2(MoO4)3,2.6649000000000003
LiCr4(PO4)3,2.665
Mg2VN3,2.6650000000000005
Li4Zn(PS4)2,2.6651
Li3Cr2(PO4)3,2.6652
Li4Mn3Fe(BO3)4,2.6652
Al24Tl10Cd7(SiO4)24,2.6653
Mg30MnFeO32,2.6653
Li6FeNiP2(CO7)2,2.6653999999999995
Na2ZrTiSi2SO12,2.6654
Tm2MgS4,2.6655
Ba2CaFe2CoF14,2.6655
Ba2CoSi2O7,2.6655999999999995
VNi3AsO8,2.6658000000000004
Mo2P4O15,2.6659
Na4Cd3H2(C2O7)2,2.6660000000000004
Li2Ge4O9,2.6661
Tc2O7,2.6664
V2SiPb5O12,2.6668
Li2AlFeO4,2.6668
Ba2Zn(HO)6,2.667
Sn2Bi2O7,2.6670000000000007
Sm4ZrO8,2.6672
LiVSiO4,2.6672
Al7(TlS4)3,2.6673
LiMnBO3,2.6673
CoH12SO10,2.6673
CaTeO3,2.6673
Li6Sn5(P2O7)4,2.6673000000000004
Li2CrO4,2.6674
Mg3Si3(MoO6)2,2.6674999999999995
VBi(PbO3)2,2.6675
LiTi2(PO4)3,2.6676
Bi7(O2F3)3,2.6676999999999995
Li4Fe3OF8,2.6677
MgVP2O7,2.6678
Li8Mn5Fe3(BO3)8,2.6678000000000006
Li10Zn7(PS4)8,2.6681
Li6AlCrO6,2.6681
Na4Nb2Si5Sn2SO24,2.6681000000000004
Ta2Zn2FeO8,2.6681000000000004
Li10Zn7(PS4)8,2.6682
H18IrC6S3(ClO)3,2.6683
LiFeSiO4,2.6683000000000003
Bi6Mo2O15,2.6683000000000003
SrMg(SbO3)2,2.6685
K22Nb13In11(PO5)24,2.6685
Na3ScSn3(PO4)6,2.6688
K4Nb6O17,2.6689
Li8Mn5Fe3(BO3)8,2.6689000000000003
LiCrPO4,2.669
Nd6S3(OF4)2,2.669
KLiMg30O31,2.6691
Li4Co(SiO3)3,2.6691
Na3LaTaSi2PO12,2.6693
LiSiBi3O7,2.6693
CS3N,2.6695
TbFeGe2O7,2.6695
SmCrGeO5,2.6697
BaVAsO6,2.6697
K2VH4C4O9,2.6698
Na6ScNb3(SiO4)6,2.6699
Mg3Ge3(BiO6)2,2.6699000000000006
Li3Cr(PO4)2,2.6700000000000004
Li3Cr2(AsO4)3,2.6701999999999995
CrHO2,2.6702000000000004
K3Ta3(BO6)2,2.6703
Rb2SbN2(O2F)3,2.6704
Ba2ZnO3,2.6704
TaAsO4,2.6704000000000003
KB6H2OF6,2.6705
Li8Mn5Fe3(BO3)8,2.6706
Sn2OF2,2.6708000000000003
Yb4MgTi2O10,2.6709
Ca3B3N5,2.6709000000000005
K2MnH4(I2O7)2,2.671
NbGa3P2(SO6)4,2.671
TlHgCl3,2.6710000000000003
K3CrH3(CO2)6,2.6711
MgCr2(GeO3)4,2.6712
Na2CrO4,2.6713
SbS2NF6,2.6713
Li3Cr(PO4)2,2.6716
Rb2PtC4(N2Cl)2,2.6717
CoPH8C3N3O7,2.6717
Cr2(WO4)3,2.6717
Ca3In2(GeO4)3,2.6718
Rb2LiFe(MoO4)3,2.6718
Li9Nd2(PS4)5,2.6719
NaCa2IO6,2.6722
K2Cr2AsHO10,2.6723
Cs2ZrFe2(MoO4)6,2.6723
Ba2Ti9O20,2.6723
VTeH11(NO4)2,2.6724
Na2NiCSO7,2.6726
NbP(Cl3O)2,2.6726
BaCdGeS4,2.6727
ZrPbO3,2.6727000000000003
NaCaTaP2SO12,2.6728
Sr4SO3,2.6728999999999994
Cs5Ag4C8IN8,2.6729
Sb2BrF15,2.6729
Li2CrPCO7,2.6729
LiFeSiO4,2.6729000000000003
BaNbInSnO6,2.673
Mn(IO3)2,2.6730000000000005
Cs2Bi4O7,2.6731
Hf3Ti2(PbO3)5,2.6732
Cs3InBr6,2.6733
Ba3In2WO9,2.6734
Na2YTaSi2SO12,2.6734
LiFe(SiO3)2,2.6735
Y3Ge6N11,2.6735
Li6Zn3(PS4)4,2.6735999999999995
KW3Br7,2.6737
Sn(WO4)2,2.6737
LiCrPH2O5,2.6737
Rb2AgMoF6,2.6738
VP(HO)9,2.6738
InSn2Cl5,2.6738000000000004
Nd2Sn2O7,2.6738000000000004
Sm3SbO7,2.6738000000000004
Cd3B4(PbO4)3,2.6739999999999995
KLaTiSnO6,2.6740000000000004
Sb8Br2O11,2.6741
Li3Fe(PO3)8,2.6742
KLa(PS3)2,2.6742000000000004
Li5FeO4,2.6744
Cs2B12HF12,2.6744
K3C6N9O,2.6745
Na3InSn3(PO4)6,2.6745
Li4Mn3Fe(BO3)4,2.6745
Li4Zn(PS4)2,2.6745
SrLaTaNiO6,2.6746
Ta2ZnCoO7,2.6746000000000003
LiV4(PO4)3,2.6747000000000005
GaHg3AsSCl4,2.6748000000000003
Na3GaSiGe(PO6)2,2.6749
SrMg30CO32,2.6751
TePbO3,2.6752
LiSiBiO4,2.6753000000000005
Y2WO6,2.6755
Na2YTaSi(PO6)2,2.6756
FeSb(P2O7)2,2.6756
SnH12C4(SCl2)2,2.6757
Li2V(CO3)2,2.6758
Ba2TaBiO6,2.6759000000000004
Al2CdO4,2.676
C4SBr4,2.6761
Na2ZrNbSi2PO12,2.6761
InH24C6(Br2N)3,2.6762
BiOF,2.6762
Si2O5,2.6763
LiSiBiO4,2.6764
CsRb2InBr6,2.6764
CsCrP2O7,2.6766
Na2Y2Al2SiS5O24,2.6766000000000005
Li3Sb3(PO4)4,2.6768
Sr3Nb2ZnO9,2.6769
LiTi2(PO4)3,2.6769
Rb3MnBr5,2.677
Zn2SiO4,2.677
MgMn2Al2O6,2.6770000000000005
Nd2Th2O7,2.6771
NaSb5O8,2.6771
Na8Y3NbSi5SO24,2.6772
Sr10P6O25,2.6772000000000005
NaLi4(H2N)5,2.6774
KY(H2N)4,2.6774
SrHfZrSnO6,2.6775
LiUP(H4O5)2,2.6775
NaMo2H25(C4O5)2,2.6776
Li8MnFe7(BO3)8,2.6777
Li3CrSiO5,2.678
Li6Zn3(PS4)4,2.6781
RbGdH2S2O9,2.6781
CaWO4,2.6781
Ba3(GaS3)2,2.6781999999999995
H6N4O9,2.6783
Li4MnFe3(BO3)4,2.6783
Ta2H36C12N6Cl2O,2.6784
Ge7H18O23,2.6785
Cr2(MoO4)3,2.6785
MnFe2Sb2(PO4)6,2.6785
Li2AlFeO4,2.6785
Rb6U(Mo2O9)2,2.6787
KLaMg30O32,2.6787
Li2MnFe(BO3)2,2.6787
Rb2PrAgF6,2.6788
Sm3SbO7,2.6788
YbFeC6(N3O2)2,2.6788
LiVF3,2.6788
Gd2Zr2O7,2.6791
Na4MoO5,2.6791
TmMoClO4,2.6792
Li2CoP2O7,2.6793
AgClO4,2.6793000000000005
TmWBrO4,2.6794
Li2AlFeO4,2.6794
Na3Mg4Ta8P15(SO24)3,2.6794
Li3Cr2(PO4)3,2.6795
V2Zn3TeO10,2.6796
Li2MnFe(BO3)2,2.6796
Pr3Si2S8Br,2.6796
Na2VS2O9,2.6796
FeB4O7,2.6798
LiFeSiO4,2.6798
CsPbCl3,2.6799
NaTa3O8,2.68
Li8MnFe7(BO3)8,2.6801000000000004
FePH6(NO2)2,2.6803
Cd(BiO2)2,2.6804
Nd2NbInO7,2.6804
NaTaCl6,2.6804
LiFeSiO4,2.6805000000000003
Na7Ca2Ta2Si3(PO8)3,2.6806
Mg2TaWO6,2.6806
Ba3Nb2NiO9,2.6808
Li6Zn3(PS4)4,2.6808
KSbO3,2.6808
CrH8(NO2)2,2.6809
RbNa2AsF6,2.6812
Na6Si5Sn4SO24,2.6812
Sb3ClO4,2.6812
Cs2SrV4O12,2.6812
RbAgC2,2.6814
BaH2S5O6,2.6815
Li8MnFe7(BO3)8,2.6817
NaCr2In(H2O5)2,2.6817
KGeNO,2.6817
NbAlP2SO12,2.6818
Sr2SnO4,2.6819999999999995
Zn3Cr2(SiO4)3,2.6819999999999995
Li6Zn3(PS4)4,2.6821
Na2Ta5Al3(PO4)12,2.6824
K2TiCr(PO4)3,2.6824000000000003
GdGa3(BO3)4,2.6825
Er2Sn2O7,2.6825
KGaAs2O7,2.6826
Li3Mo3(PO4)4,2.6826
MgV2Pb(OF4)2,2.6827
Ti3H2O7,2.6827
LaCN2F,2.6827999999999994
CuSi2H18C9O2,2.6828
Na6La2Ta6Si9(SO16)3,2.6828
H6C2S(BrN)2,2.6829
BaLa2O4,2.683
Na2CoP2O7,2.6831
NaHf3Nb(PO4)6,2.6832000000000003
Na6NbIn3Si2(PO6)4,2.6833
LaAuO2,2.6833
TcC5ClO5,2.6834
Gd2P4O13,2.6834
LaHSe2O7,2.6835
K3BiI6,2.6837
CdH4(C2O3)2,2.6837
FeRe2(H2O3)4,2.6838
Li2Ni(PO3)4,2.6838000000000006
CaPrHfCrO6,2.6840999999999995
Li2MnF6,2.6841
Sr3MgPtO6,2.6841000000000004
LiNbWO6,2.6842
Na3Ca4Ta8P15(SO24)3,2.6842
Li3V(PO4)2,2.6842
Rb2MnH12(SeO7)2,2.6843000000000004
Ni3H2Se3O10,2.6843000000000004
Sr2Nb2O7,2.6844
SrV2TeO8,2.6844
Li4Bi2O5,2.6846
Mg8B5IN10,2.6847
TlBi(MoO4)2,2.6848
CaMg14FeO16,2.6849
CrSb2H12C8O5,2.685
XeF6,2.6850000000000005
Li6Co(SiO4)2,2.6850000000000005
ScVO4,2.6851
Na6Nb3Ga(SiO4)6,2.6851000000000003
Li8Mn(O2F)2,2.6852
CaZnSO,2.6853
Ca(BO5)2,2.6853
PrMoClO4,2.6854
CaCo(Si2O5)2,2.6854
Rb2MgNb2(TeO6)2,2.6854
Ga4B2O9,2.6855
LiFeSiO4,2.6855
CoPH21N5O7,2.6856
Li12Mn3VP4(CO7)4,2.6856
Na8Y2Si5Sn2SO24,2.6857
RbLaS2,2.6857
K3VH6C4O13,2.6857
Zn2SiO4,2.6857
Mn2SnC10(ClO5)2,2.6858
LiNiPO4,2.6858000000000004
ThIN,2.6859
LiVSiO4,2.686
Na6ZrZn3Si2(SO6)4,2.6861
Sn4SF6,2.6861
YAuO2,2.6861999999999995
XeF2,2.6861999999999995
LiCoPO4,2.6863
HoWBrO4,2.6863
NaAlSiSn(SO6)2,2.6864
FePO4,2.6866
SrCaGdNbO6,2.6866
K2Cu(Si2O5)2,2.6867
CaLaTaFeO6,2.6867
LiFeSiO4,2.6867
KLaSiS4,2.6869
LiMo(PO4)2,2.6869
Ba6Nd2Ti4O17,2.6869000000000005
CuH36S8I2(N3O4)3,2.6872
Na14Mg4Ga4Si5S7O48,2.6872
Na14Ta2Ga6Si9(SO16)3,2.6872000000000003
BaZr2SnO6,2.6872000000000003
Na2ZnGeO4,2.6874
Li6MnVP2(CO7)2,2.6874
KMgP2H5O9,2.6875
K3VC5N5O,2.6876
KCrO3F,2.6876
As2Pb2O5,2.6879
K2Cr2AsHO10,2.6881
Pr3Si2S8Br,2.6881
Ba2V3BiO11,2.6881000000000004
BaNbTePO8,2.6882
LiFeB2O5,2.6882
Ba3In2WO9,2.6884
TbCrTeO6,2.6885
LiFeSiO4,2.6885000000000003
Sr(GaS2)2,2.6885000000000003
V3Bi(PbO4)3,2.6886
Pr5Te7MoCl3O23,2.6886
K3Co(NO2)6,2.6886
CaPbI4,2.6887
CaMg14CdO16,2.6887
CdN6,2.6889
Na42Ta16Zn8Si33(SO48)3,2.689
KMnF3,2.6892
Na15Ta5Zn7(PO4)18,2.6892
BaLi4NiO4,2.6893
KRbMg30O31,2.6893
La3TaTi2O11,2.6893
LiFeSiO4,2.6893
Pr5Te7WCl3O23,2.6893
Ca3Nb4(O6F)2,2.6894
LiFeSiO4,2.6894
BaNb7(P2O11)3,2.6894
CsTaCo(OF2)2,2.6894
LiNi2OF3,2.6895
Na4NbAl(SiO4)3,2.6896
ZnCoH18N6Cl5,2.6896
Li10Zn(PS4)4,2.6896000000000004
HgN6,2.6897
La3SmCr4O12,2.6897
Na3NiBSO7,2.6897999999999995
K2Cr2AsHO10,2.6899
Sm3Ta17O47,2.6899
Ba3GeO5,2.6900000000000004
Na7Ti2Ga2Si3(PO8)3,2.6901
BI3,2.6901
NaTiPCO7,2.6902
LiFeSiO4,2.6902
Na21Ca4Ta8Si15(PO24)3,2.6903
SiBr2,2.6904
Na4Ta3InSi5SO24,2.6904
AlBi3Sb2O11,2.6904999999999992
Li2MnNi(PO4)2,2.6905
RbFeF4,2.6906
Na9Mg5NbP6(SO12)3,2.6906000000000003
Na3FeBSO7,2.6907000000000005
Li4H6Os,2.691
Cs2TiP4O13,2.6910000000000003
YVF5,2.6910000000000003
Na6Si5Sn2Ge2SO24,2.6911000000000005
ZnMoF5,2.6912
LiVF4,2.6913
KWNClF5,2.6914
MgAl6O10,2.6915
NaCoPO4,2.6916
RbMg30BO31,2.6916
Fe2(WO4)3,2.6917
Na4Bi2O5,2.6918
Ba6ZrO8,2.6918
TiTl2(GeO3)3,2.6919999999999997
MgCr4FeO8,2.692
ReBi3O8,2.6921
Er2MgS4,2.6921
AgCSN,2.6922
Nb4Pb3O13,2.6922
Ca3Yb2Zr3Ti8O28,2.6925
Na5HfIn3Si3(SO8)3,2.6925000000000003
LiClO2,2.6926
KAlSiO4,2.6927000000000003
SrMo2(AsO6)2,2.6928
LiFe(PO3)4,2.6929
PrSCl,2.6929000000000003
LaAsO3,2.693
Gd(BO2)3,2.693
Li6Zn3(PS4)4,2.693
Li4NbIn3(PO4)6,2.693
Sm2SiSeO4,2.6930000000000005
Li2V3(P2O7)2,2.6931000000000003
CaTiAs2O7,2.6932
Sb3TeClO6,2.6933
Co3(PO4)2,2.6933
Cs2PtF6,2.6933
Na10Nb4Si11Sn4SO48,2.6935
ZnAu2(CN)4,2.6935
KHg2S(ClO)3,2.6937
F2,2.6938
Pb(IO3)2,2.6939000000000006
Ba2Ga2S5,2.694
YVO4,2.694
NbGa(PbO3)2,2.6941000000000006
HgTe(HO)7,2.6942
RbW3Br7,2.6942
CsMg30WO32,2.6942000000000004
Na7Hf3Nb(SiO4)6,2.6942000000000004
Ca(SbO3)2,2.6943
NiH2SeO5,2.6943
MoSO6,2.6943
Na10LaNb7(SiO4)12,2.6944
Cs2Zn3S4,2.6945
As3Pb5ClO9,2.6945
K2ZnH12(SO7)2,2.6945
Si4Mo2P4O23,2.6946
YCrTeO6,2.6946000000000003
Rb(CO)2,2.6948000000000003
Mn4SiTeBr2O7,2.6949
SmCrTeO6,2.6949
Rb2LiV(PO4)2,2.695
Na12Ta4Zn2(SiO4)9,2.695
Na2TeW2O9,2.6950000000000003
MgTi2O5,2.6951
GaClO,2.6954
Ag(BCl)6,2.6955
Li5Ti6FeO16,2.6955
K3SbS3,2.6955
SNCl,2.6955
NaMoAsO6,2.6956
Tm2S2O,2.6958
K2RbBiI6,2.6959
K2ZnCr2(H2O5)2,2.696
LiFeSiO4,2.696
Li2Bi2B2O7,2.696
Na4Zr2In2Si3(SO8)3,2.6960999999999995
H3NCl,2.6961
Gd3TaO7,2.6961
ReHgO4,2.6963
Sb2H5C3SCl6O5F3,2.6963
Ba3V2(SeO4)4,2.6965000000000003
CaGe2O5,2.6966
K3Gd(BO3)2,2.6966
KNi2H3(SeO5)2,2.6967
RbTiNbO5,2.6967
TaAsO4,2.6967000000000003
Li15H9N8,2.6967000000000003
ThBeO3,2.6968
Na2Ti2Si2SO12,2.6968
RbYMnWO6,2.6968
Ba4NbFeO8,2.6971
BH6N,2.6972
Na3CeF7,2.6973000000000003
GdAsO4,2.6976000000000004
SmMnSe2ClO6,2.6978
La2Ga4O9,2.698
Li8TiS6,2.6980000000000004
CaLaPrMnO6,2.6980000000000004
NaV2Bi3O10,2.6981
KNaGdTaO5,2.6982
Ba2MgUO6,2.6983
VCdClO3,2.6983
Na21Ca8Ta4Si3(P5O24)3,2.6983999999999995
Ca(H2N)2,2.6985
NaNb2AsO8,2.6985
Er2Ti2O7,2.6986
LiIn(IO3)4,2.6987
Mg30MnZnO32,2.6988000000000003
LiSiBiO4,2.6989
Na7La2Si3Ge2(PO8)3,2.699
Li10Zn(PS4)4,2.6991
FePO4,2.6991
YMn2Al(BO4)2,2.6991000000000005
H2Os3C8(SO4)2,2.6992
Na2Ti7O15,2.6994
Sb3S2XeN(O2F9)2,2.6994
K2FeSn(PO4)3,2.6995999999999998
CuH24C9S3IN6,2.6997
LiFeSiO4,2.6997
Y4Ti6Bi2O21,2.6999
Ca4Te5O14,2.7
Cr(OF)2,2.7
Te6Mo3WS2,2.7001
RbVOF3,2.7001
Ca2H6Os,2.7001
CsHg5Cl11,2.7002
Rb2Cr2Cd(H2O5)2,2.7002
Mg30MnCdO32,2.7002
Rb3TaS4,2.7003
Na7Ti4Si5PO24,2.7003000000000004
KLaS2,2.7005
CaTiGeO5,2.7005
LiFe(PO3)4,2.7007
Li3FeB4O9,2.7008
LiFeSiO4,2.7009
Te2Mo3W(Se2S)2,2.7009000000000003
In2Si2O7,2.7009000000000003
Na2Si2Ge2SO12,2.701
Li2VF4,2.701
Li5Cr(P2O7)2,2.7011
P2W2O11,2.7011000000000003
AlSn3F15,2.7011000000000003
Na10Ca4Sc4Si3(S3O16)3,2.7011000000000003
Na6Ta4Zn2Si3(PO6)6,2.7012
NaSbO3,2.7012
Ho2Sn2O7,2.7013
Cs2TlInCl6,2.7015
GePClO2,2.7015
VH12N3O5F2,2.7016
GaBi3Sb2O11,2.7016
Na6Zn3SnP4(SO12)2,2.7017999999999995
CrB6H32(C4O)2,2.7018
Er2(SeO4)3,2.7019
Zr3Ti2(PbO3)5,2.7019999999999995
NaLaInP(SO6)2,2.702
Gd2TiO5,2.7020000000000004
TiP2O7,2.7023
Rb2Cr2O7,2.7024
Na6La4Ta4Si7S5O48,2.7024
BaP2(XeF5)4,2.7025
BaMo3O10,2.7025
Cu2H10C6S3N4,2.7027
LaTaO4,2.7027
KGaS2,2.7028
CaNb2(P2O7)3,2.7029
Ca5Co3(SiO4)4,2.7029999999999994
ZnSi4NiO10,2.703
CaTaP(SO6)2,2.7031
Na2In2Si(SO6)2,2.7031
K4Gd2C3O9F4,2.7032
Ta9PO25,2.7033
K2NaMo(OF)3,2.7033
Er(PO2)3,2.7034
SN,2.7035
Na4Sr(Ge2O5)3,2.7036
C6N7Cl3,2.7037
Na2GeH14S3O7,2.7038
CaTiGeO5,2.7038
NaLi3Fe4(SiO3)8,2.704
KH6Rh(N3O4)2,2.704
Na7CaTa3(SiO4)6,2.7041000000000004
BaTi4O9,2.7042
MoH8N2O5F2,2.7042
CsV2SbO8,2.7044
Li2MnFe(BO3)2,2.7044000000000006
NO2,2.7046
Na5Sc3Sn(PO4)6,2.7047
CaNdCrO4,2.7047000000000003
Li3Fe3OF7,2.7048
Na21Mg4Ta8Si15(PO24)3,2.7048
V2Zn3O8,2.7049
MgZn2(AsO4)2,2.705
La2MoO6,2.705
LiBeH3,2.7052
CoH10C4(N2O3)2,2.7053
Na10La4Zr4Si7S5O48,2.7053000000000003
Li5V(CO3)4,2.7054
Na3Li2Fe5(SiO3)10,2.7055
Na10Si9Ge8(SO16)3,2.7056
Li2MnFe(BO3)2,2.7056000000000004
Na10Y4Ta4Si9(SO16)3,2.7056000000000004
Na7NbSi6(SnO8)3,2.7057
Li2MgTi9O20,2.7058
CsVOF3,2.7058
KBiF6,2.7061
Li8WO6,2.7063
Na2Y3Ta5(PO4)12,2.7063
Li6Zn3(PS4)4,2.7064
MgGe4(BiO6)2,2.7064
Na2Ca(Ge3O7)2,2.7066
Li6Fe(OF)3,2.7067
ZrMnO3,2.7067999999999994
MgCr2(GeO3)4,2.7067999999999994
AgCS(OF)3,2.7068
TiNi(PO4)2,2.7069
K3NaSi3(SnO6)2,2.707
CuH8C2S2N4Cl,2.7072
LiNiPO4,2.7073
KTiNbO5,2.7073
K2Cr2O7,2.7075
Sr2MgH6,2.7075000000000005
CrH20S2(NO7)2,2.7076
Te2MoWSeS,2.7077
SiBi2O5,2.7077
ZnC2,2.7078
LiMnF3,2.708
Li6Zn3(PS4)4,2.7081000000000004
Os3C9S2O9,2.7083
Cr3B7ClO13,2.7083
ErWBrO4,2.7085
Fe2SiO4,2.708600000000001
Li2Si4O7,2.708600000000001
SrMgH4,2.7087
BaGe(AsO4)2,2.7087
Li2HN,2.7087
H9C2N11O8,2.7089
Na6Ti2Si5Ge2SO24,2.709
Al2Fe3F15,2.7091
Na4Zr2Ga2Si3(SO8)3,2.7091000000000003
Na2TmAgCl6,2.7093
Al2NiO4,2.7095
NaPrHfZrO6,2.7095
YWBrO4,2.7095
K3TaS4,2.7095
LiTi2BiO6,2.7097
Mg14SiCO16,2.7097000000000007
Zr3N2O3,2.7098
Fe2SiO4,2.7099
Mg6MnCdO8,2.71
Ba2Sc2O5,2.7100000000000004
KB6H4(OF3)2,2.7101
Li4Zn(PS4)2,2.7102000000000004
HgH36C14S8(O2F)6,2.7103
Pb12Br7ClO8,2.7103
NaCl3,2.7105
Ti3H2O7,2.7106
SnBr4,2.7107
Na3Ca2Ta2P5SO24,2.7107
Na6Zr4Al4Si5S7O48,2.7107
LiB13C2,2.7108
Sr2SnO4,2.7108
NaLi7Fe8(SiO3)16,2.7108
Li7Cr2P7O24,2.7109
LiCrSi3O8,2.7109
Cs(CO)2,2.7110000000000003
Mo2AsH18C6NO12,2.7111
Li4TeO5,2.7111
GdSbMo2O9,2.7112
Cd2MoWO8,2.7112
H6C(N3O2)2,2.7113
NdCrTeO6,2.7114
Sn2Bi2O7,2.7114000000000003
SrMo2Se2O11,2.7115
AgClO3,2.7117
Sr2La14Mg4(Ga4O15)3,2.7118
LiNiPO4,2.7118
Na3In2Sn2P5SO24,2.7118
MgCr2O4,2.712
P4S9,2.7121000000000004
MgAl2O4,2.7123
Dy2Sn2O7,2.7123
Na7Ti2Si5Ge2PO24,2.7124
S,2.7125
KSiSbO5,2.7125000000000004
Rb2Cr2O7,2.7126
Tb2Zr2O7,2.7126
CsW3Br7,2.7127
NaNi2H3(SeO5)2,2.7127
K2V3P4O17,2.7127
Al6Cd4SO12,2.7127
Li3MnFe2(BO3)3,2.713
GePbO3,2.7131
CaBi2P2O9,2.7132
KVH4O7,2.7133
K2PtN3(ClO2)3,2.7133
Cr2Fe3(SiO4)3,2.7134
CS2NClO2,2.7134
KTi2(PO4)3,2.7134
TiP2(HO4)2,2.7135
LiBi3(ClO2)2,2.7135
KSeNO2,2.7136
SrCrP2O7,2.7137
Li2Zn3(Ge3O8)2,2.7137
Cd2P2O7,2.7139
NaTaO3,2.7139
Ca4Al5FeSi6(HO13)2,2.714
Li4Ni5Te(PO4)6,2.7141
TiBr4,2.7141
Li2MnFe(BO3)2,2.7141
Na3Ta2Ti2Si3(PO8)3,2.7142
Sr2FeCO3F5,2.7143
NdTiCdSbO7,2.7143999999999995
NaY2Sc2PS5O24,2.7144000000000004
PRuC4(OF)3,2.7145
Ba2NdMgSbO6,2.7145
BaCaI4,2.7146
Gd3Sb5O12,2.7146000000000003
LiFeSiO4,2.7147
BaTeO3,2.7149
Ca6Te5N2O21,2.715
Li3CrSi2O7,2.715
Cs3MnBr5,2.715
Sn2P2O7,2.7152
Ca(SiO2)6,2.7153
Na7Mg2Ta2Si3(PO8)3,2.7153
K2HgH2Cl4O,2.7153
Li2VOF5,2.7158
Y2V3(SiO4)3,2.7158
CoTe6O13,2.716
KTaV2O8,2.716
HfPbO3,2.7161
PbICl,2.7162
CaMgV2O7,2.7162
HoMoClO4,2.7162
YTa3O9,2.7163000000000004
Li8Ni(O2F)2,2.7163000000000004
Rb2TlAsF6,2.7163000000000004
As2W2O11,2.7163000000000004
KZn2CdB2O6F,2.7164
CoSiH15N6(OF3)2,2.7165
CaAlH5,2.7165000000000004
Na4TeH10(SeO8)2,2.7166
Lu2MgS4,2.7167000000000003
BaYSi4N7,2.7167000000000003
Li3VF5,2.7168
Tc(CO)5,2.7169000000000003
DyCrTeO6,2.7169000000000003
KGeSbO5,2.717
Mn3H2Se3O10,2.7170999999999994
Na2HfMg3(SO4)6,2.7172
Na3CoF6,2.7172
ErVO4,2.7173
MgTi2O5,2.7175
La6NbGa11O28,2.7176
Na8Ti2Al2Si5SO24,2.7176
K2Te4O9,2.7177
H6C(SN)2,2.7177
LiSnPO4,2.7177
CaMg6BiO8,2.7177999999999995
LuSBr,2.7179
CaP2Xe5F22,2.7179
Na10Hf4Si9Ge4(SO16)3,2.718
Li4CrF6,2.718
TeMo2Se2S,2.718
Ba2PrMgSbO6,2.7181
K2Mo(I2O7)2,2.7181
GdVO4,2.7181
Rb2LiTaS4,2.7182
Nd2As6Xe5F46,2.7183
Ti4ZnO9,2.7184
Dy2TiO5,2.7184
Ba6Ti2Nb10Si8O51,2.7184
K2Co2(SO4)3,2.7184
Bi10(MoO8)3,2.7187
FeSiO3,2.7187
NaYTiNbO6F,2.718700000000001
Y2Co3(SiO4)3,2.718700000000001
Li10Zn(PS4)4,2.7188
B2Pb2O5,2.719
Pb2C(SO3)2,2.7190000000000003
Y3In2(GaO4)3,2.7191
KVH6SeO9,2.7192
Na3Ca2Ta4(PO4)9,2.7192000000000003
Sr4V2(Se2O7)3,2.7193
Os(CO)4,2.7194000000000003
Cs2Cr4Cd(HO4)4,2.7195
SnF3,2.7195
K2VO2F3,2.7196
K3H5Pd,2.7196
BaLi2MnV2O8,2.7197000000000005
Ca2SnO4,2.7198
Gd2Si2O7,2.7198
Si7SnN10,2.7199
Mg14ZnCdO16,2.7199
Y4TiSi2(O3F2)3,2.7199
AlGaN2,2.7200000000000006
SrNdNiSbO6,2.7200999999999995
K4MoS3O14,2.7201
H6PbCNCl3,2.7201
TlH6C3S3(O4F3)3,2.7202
CrH10N2Cl5O,2.7203
Te6H6S(Cl13O2)2,2.7204
Li12MnV3P4(CO7)4,2.7204
BaBiIO2,2.7204
NaCr(SO4)2,2.7205000000000004
HoSI,2.7206
Y2Ti2O7,2.720800000000001
Ho2Ti2O7,2.720800000000001
HPbIO,2.7209
Na3La2Ta2SiP5O24,2.7209000000000003
Na6Mo10O33,2.721
TcSO6F,2.721
NaCaPrSeO6,2.7212
NaNd4I7N2,2.7212
Co5P4(HO2)10,2.7213000000000003