formula,band_gap (MP)
In2(SeO4)3,2.3097000000000003
VH20S2(NO7)2,2.3098
Bi3O4F,2.3098
LiFe2P3O11,2.31
Gd3AsO7,2.3103
Ba2SnS4,2.3103
Cs3AlO3,2.3104
Na3Mg4Nb2P3(SO6)6,2.3104
Fe(HO)2,2.3104
Zn(GaO2)2,2.3105
V2PH8(NO4)2,2.3106
TlW3Br7,2.3106
ZrMnTlF7,2.3108
Sr2ZnMoO6,2.3108
H13PtC3N3Cl2O,2.3108
S,2.3108
TiZn2O4,2.3108000000000004
Li4Si4Bi2O13,2.3109
Hg2SeO3,2.3109
CsUGa(PO5)2,2.311
Mg2GeS4,2.311
Rb2MgO2,2.3111
PH15C18INCl2,2.3111
CsV3(TeO6)2,2.3111
Sr2Fe3Sb(PO4)6,2.3111
Sr6Mg(W2O9)2,2.311300000000001
Na4LaNb3Si4(PO12)2,2.3114
Te2MoW3(SeS2)2,2.3114
Y2Ti3O9,2.3114000000000003
V4Fe2O13,2.3115
LiTi2(PO4)3,2.3116
KFe(MoO4)2,2.3116000000000003
TeMo2Se2S,2.3117
KMg14SiO16,2.3117
ThV2SeO9,2.3117
Na5Y3NbSiP5O24,2.3118
BaScZn3GaO7,2.3120000000000003
TiGaP(SO6)2,2.3121
K2CdGeO4,2.3122000000000003
Na9Mg5TaSi3(SO6)6,2.3123
Ba2SrSeO6,2.3123000000000005
NaLiMg30O31,2.3124
Sr4Nb3PO14,2.3125000000000004
P2Pb3S8,2.3126
Zr4N3OF5,2.3129
Zn2CoWO6,2.3129000000000004
Ti(Bi3O5)4,2.313
KCoH3(CO2)3,2.313
K3Ta2Cu3S8,2.313
Sr2MgMoO6,2.313
UCr4H48C14(N15O11)2,2.3131
Na6MgSi2Ge3(PO6)4,2.3133
Sr2ZnGe2S6O,2.3133
Na6Nb3Ga5(PO4)12,2.3134
Na2H4RuC5(N2O)3,2.3134
Er9Al5S21,2.3135
Li2MnSi3O8,2.3135000000000003
KTbS2,2.3136
KPPbS4,2.3136000000000005
K2FeP2H3(O4F)2,2.3137
Te4Mo3WS4,2.3138
Mg(SiO2)5,2.3138
V(PO3)3,2.3138
Li3Sb2(PO4)3,2.3138
H8Pt(N4O)2,2.3138
VZnPO5,2.3139
Ta2PbO6,2.3142
NaZr2Ti2P5SO24,2.3142
Tl5BrCl4,2.3144
Li2BiBO4,2.3147
Ba17Tm16Zn8Pt4O57,2.3147
Na3ZnSn3P5SO24,2.3147
NbBiO4,2.3148
Cs3TmO3,2.3148
Na10Y2Nb6Si11SO48,2.3149
Na3Mg2Ti2P3(SO8)3,2.315
Sn3SO7,2.3151
Sb2Cl5F4,2.3152
Na4NbAl3Si3(SO8)3,2.3152
Na6Zn7Ge(SO4)12,2.3153
Na2TiFe(PO4)3,2.3154000000000003
DyPtF7,2.3154000000000003
Ca2Nd2Nb3FeO14,2.3155
NbC2NCl8,2.3156
Na2CaSn2(GeO4)3,2.3158000000000003
Na3ScNb3Si3(PO8)3,2.3159
TiPbO3,2.316
Ca2La4Ti5O18,2.3161
Sm6Si4S17,2.3161
Na5Ti2Ga2SiP5O24,2.3161
Mg2FeWO6,2.3162000000000003
S,2.3162000000000003
NaSm3Ti2(SbO7)2,2.3162000000000003
RbPPbS4,2.3163000000000005
Na2Zr4Ga4Si3(S3O16)3,2.3166
RbYS2,2.3166
Li5MnO3F,2.3168
K2HgCl4,2.3168
Na6Ta4In4Si7S5O48,2.3168
Sr6Mg(Te4O11)2,2.3169000000000004
Mg30MnCO32,2.3169000000000004
NaNb3GaSiP5O24,2.317
Ba2LaI7,2.3171
RbTiPO5,2.3171000000000004
SrCrBi12(Mo2O17)2,2.3173
YbTiO3,2.3173
La4MgGa2(FeO6)2,2.3173000000000004
K2UAs2O9,2.3173000000000004
K2RbAsI6,2.3175
Li3Co3OF7,2.3176
Sr3(BS3)2,2.3176000000000005
K3Nd(PS4)2,2.3177000000000003
RbV3Cd4O12,2.3178
Cs3Pr5(PS4)6,2.3179
HfZnN2,2.3179
Hf(PS3)2,2.3179000000000003
KLaHfTiO6,2.3179000000000003
Na8NbIn3Si5SO24,2.318
Li7Mn(O2F)2,2.318
NaGdTi2O6,2.318
HfMg14GaO16,2.3180999999999994
Cs2CaO2,2.3181000000000003
TmSbO4,2.3181000000000003
GeWO4,2.3181000000000003
MgCr2(FeO3)2,2.3182
CaCo6(OF5)2,2.3183
BaZn2As3HO11,2.3183
Na14Mg6Zr2Si5S7O48,2.3183
Ti(NCl)3,2.3184
Cs2AgSbF6,2.3185
Mg3Fe2O5,2.3186
CoBi6(SO8)2,2.3186000000000004
Na6Mg3GeP4(SO12)2,2.3187
CsBiO2,2.3187
Li11Fe5(OF11)2,2.3187
NaCaGa(SO4)3,2.3187
K2UMo2HO10,2.3188
K2LiSbBr6,2.3188
Ta2Mn3O8,2.3188000000000004
La2Mg(NiO3)2,2.3189
AlFe3Se2ClO8,2.3191
K2ZnSe2,2.3191
K2CrSO7,2.3191
Zn2As(HO2)3,2.3191
Rb4V5CdClO15,2.3192
CaHfTiSnO6,2.3192000000000004
ZnHgC4(SeN)4,2.3193
Li3Co3OF7,2.3194
Na2Mg2Zr2SiS5O24,2.3195
BaMnF4,2.3195
Gd2W2O9,2.3197
Na3YNb3Si3(PO8)3,2.3197
RbLaSe2,2.32
Al2Fe2Bi2O9,2.32
Na14Mg5Ge3(PO4)12,2.3200000000000003
Ba3WO6,2.3200000000000003
TbBS3,2.3202
Cr4Si2Cl2O7,2.3203
Mg3Ni3(AsO4)4,2.3203
MgCo2(PO4)2,2.3203
ZnH2C4(S3N2)2,2.3203
RbNO2,2.3204
CdH6C4(S2O)2,2.3204
Y3NbP2(SO6)4,2.3205
P3H2CN2Cl11,2.3206
Nd2GeO5,2.3206999999999995
KLiMg30O31,2.3208
Mn(IO3)2,2.321
Ca3V6(FeO6)4,2.3211
Li6Co11(OF12)2,2.3211
K3Bi3(PS4)4,2.3213
Cr2FeO4,2.3214
VPPbO6,2.321400000000001
Li2VP2O7,2.3214999999999995
AlFe(WO4)2,2.3215
Li4Si2NiO7,2.3215
H16AuC12S2N3O4,2.3215
Li6MnSn3(PO4)6,2.3216
RbDyS2,2.3216
Na12Mg2Nb10Si15(SO24)3,2.3216
LiVF4,2.3217
AlO3,2.3217
Cs2U(Cl2O)2,2.3217
SrMg14SnO16,2.3218
NaSO2,2.3219
BaCaVP2O9,2.3219000000000003
Cr2NiO4,2.322
Mg(SiO2)8,2.322
KYS2,2.3221
V4Cr2O13,2.3222
K6Mg(SbO4)2,2.3223
CrOF4,2.3223
TaInBi2O7,2.3226
U2Tl2Mo3O16,2.3226
K2YCuBr6,2.3227
Li2VO3F,2.3227
Ho2MgAg2(WO4)4,2.3227
AgMo6Cl13,2.3227
Na7Ca3Ta7Ti3O30,2.3227
Rb4MgFe8H6(Se8O25)2,2.3228
NdTa3O9,2.3229
CoBiPO5,2.3229999999999995
Na3GdBr6,2.3231
KNO2,2.3232
MgCr(SiO3)2,2.3232
AsH8NO4,2.3233
CsCu3As8H24C8(IO2)4,2.3233
AlP(HO2)2,2.3234000000000004
Na10Ca3Zr5Si6(SO8)6,2.3236
Na3Ag3W2(OF)6,2.3237
Ca5DyTi5Fe(SiO5)6,2.3237999999999994
MoH4O5,2.3239
GdAg(PO3)4,2.3239
Sm3Si2S8Br,2.3239
K2LaAuCl6,2.324
KTlCl4,2.3241
Ba2YW2F11,2.3242
Na2LiCuP2O7,2.3243
Li2Nb4O11,2.3244
HfCdO3,2.3244
NaErS2,2.3245
K3VPCO7,2.3245
Li2MnP2O7,2.3245
P2S3,2.3245
Li12V3FeP4(CO7)4,2.3246
Na7Nb2In2Si5PO24,2.3248
Ti3Zn2O8,2.3248
YTa3O9,2.3248
Rb3Pr3(PS4)4,2.3248999999999995
Li2Fe2Si3O10,2.3253
KBaPS4,2.3253
Na6Y2Nb2Si5SO24,2.3253
K2RbGaBr6,2.3254
Na3Ti3Ga(PO4)6,2.3254
KMg30BiO32,2.3254
Na2CrAgF6,2.3255
Nb3Fe(BiO3)6,2.3257000000000003
AlAs3(SeCl)4,2.3258
Be3Si3(SnO6)2,2.3258
Tl4PbI6,2.3258
CoH10C4(NO2)4,2.3259
K4NbFe3(PO4)6,2.3259
Ba2Sr3Nb10O30,2.326
KUN3O11,2.3262
Rb2TiHgF6,2.3262
Ba9Ca3(MoN4)4,2.3264
RbSnCl3,2.3264
Na6P4Pb3S16,2.3264
Li7NbS6,2.3266
Na2Mn(SiO3)2,2.3266000000000004
Sr2CeSnO6,2.3267
Rb2AgAsF6,2.3267
MgTa2CoO7,2.3267
Li12VFe3P4(CO7)4,2.3267999999999995
Co5Se4(BrO6)2,2.3267999999999995
Cs3BO3,2.3269
Zn2GeS4,2.3269
H10C5SeS2BrN3,2.327
Co3SnC12BrO12,2.327
Na6Sc5Ta3Si6(SO8)6,2.327
Pr2MoO6,2.3271
H7C4(N3O2)3,2.3271
Sr4LaCl11,2.3272000000000004
Na3YSiGe(PO6)2,2.3272000000000004
In(HO)3,2.3273
Th2AuF11,2.3273
Rb2LiSbBr6,2.3274
ReTeSCl4,2.3274
AgB3O5,2.3274000000000004
NaSc2Nb2P5SO24,2.3275
Na3Ti3GaSi3(SO8)3,2.3275
UH10(SeO7)2,2.3276000000000003
H28RuS2(N3O5)2,2.3276000000000003
LiSn6P7O24,2.3277
NaNi2H3(SO5)2,2.3278
CoH6(SeO4)2,2.3279
Na2Al4In4SiS11O48,2.3280000000000003
CsPr9Nb(Br5N2)3,2.3280000000000003
SnH8(NCl3)2,2.3281
Na6Zr4Nb4Si9(SO16)3,2.3282000000000003
In3Sb5O12,2.3283
Li3AsH16(SO2)4,2.3283
WO2,2.3284
K2ScInBr6,2.3286
AgC3N3O2,2.3286
Fe2H2Se3O10,2.3287
SrCo2(AsO4)2,2.3287000000000004
Li3VSi4(HO6)2,2.3287000000000004
Na6ZnO4,2.3289
Hg2SeO3,2.329
Fe2C9(O4F)2,2.329
Li10Zn4O9,2.329
Mg4Nb2(SO4)9,2.3291
GdTiCdSbO7,2.3292
NiH20PtC4(NO3)4,2.3293
Dy2MgS4,2.3293
Na3AlSi2GeSO12,2.3294
Li3Fe(PO4)2,2.3294
Ba3NiO4,2.3294999999999995
Li14Fe4O13,2.3295
Co(HO)2,2.3295000000000003
CsLa2TaTi2O10,2.3296
LaPaO4,2.329699999999999
K3Nd3(PS4)4,2.3297
TaGa3SiS5O24,2.3297
KNb3(SeO6)2,2.3298
KBi6BrO9,2.3298
Ta3Bi7O18,2.3299000000000003
WBr2,2.3299000000000003
RbCu2H2C3N3O,2.3302
HgI2,2.3302
ReNF6,2.3302
Na4ScSi2GePO12,2.3302000000000005
Te4MoW3(SeS)2,2.3302000000000005
Sr10Mg5Mo3(WO15)2,2.3303000000000003
LiP4WO13,2.3303000000000003
Cs2Na3InO4,2.3304
TlV3Cd4O12,2.3305
LiSn4(PO4)3,2.3305
Li2Ti3NiO8,2.3305
KMg30BO31,2.3306
Rb2Sb8O13,2.3306
SbAs3(S2F3)2,2.3306
MnFeSiO4,2.3307
Ca3Hf2Fe2SiO12,2.3307
Li3CuS2,2.3307
BaLaI5,2.3307
TaNbO5,2.3307
ScCuO2,2.3309
CoBH18Br2(N3F2)2,2.331
Mg6NbSnO8,2.3310000000000004
Na2LiTi3Al(PO4)6,2.3310000000000004
Sr2CeHfO6,2.3311
SrCrF4,2.3311
Na6ZnSi2Sn3(PO6)4,2.3312
LiVP3HO10,2.3312
MgV(SiO3)2,2.3313
TaAsO5,2.3313
Y2TeO6,2.3314
H24AuC16S2N3O4,2.3314
CaLaTiCrO6,2.3315
LiCoPO4,2.3317
Na10Zn3Sn5(PO4)12,2.332
Na2Ta4Nb4Si9(SO16)3,2.3320000000000003
CsNbCl6,2.3321
NaCaLaWO6,2.3322
HoSbO4,2.3323
MgMo2(Cl4O)2,2.3323
Li3FeBPO7,2.3324
Mo12PH24C6N3O40,2.3325
ZnFe2(P2O7)2,2.3327
Ba3LiTi5(SbO7)3,2.3328
Er2MgS4,2.3328999999999995
Na6La3NbSi4(SO12)2,2.333
GaPS4,2.3331
Sr3Ta4Ti4O21,2.3331
La10MgTi7O30,2.3331
WCl4O,2.3332
Na2Hf4Ta4Si7S5O48,2.3333
Nd3Si2S8I,2.3333
NaDy3Ti2(SbO7)2,2.3333
NaMg14SbO16,2.3333000000000004
Sr2Li2NiO4,2.3334
LiFeSiO4,2.3334
Li2TiCr(PO4)3,2.3334
BaDySnSbO6,2.3335
Li2CoO2,2.3336
KDyS2,2.3337000000000003
NaMg30BO31,2.3338
LiFeH8(SO6)2,2.3339
MgBi(WO4)2,2.3339000000000003
Na3Nb3InSi3(PO8)3,2.3343000000000003
Mg14NbVO16,2.3343000000000007
Rb2NaIrF6,2.3345
CaBiSbO5,2.3346
YbCrO4,2.3346
K3ScI6,2.3346
Ba3(ClO)2,2.3347
K3Nb3(BO6)2,2.3347
NaMo6Cl13,2.3348
NaScNb3SiP5O24,2.3348
TbMoO5,2.335
BaCa3O4,2.3351
Hg3HN2O7,2.3351
LiVP2O7,2.3352000000000004
CsAgCl2,2.3353
Sr2CeZrO6,2.3353
KNO2,2.3354
TiNiO3,2.3354
Y2ZnS4,2.3355
RbHoS2,2.335500000000001
UH13C3N6ClO10,2.3357
RbMo3Br7,2.3358
NaLaTa2O7,2.3359000000000005
La2Si4CN6,2.3360000000000003
K2TeBr6,2.3360000000000003
NdFe6Bi(BO3)8,2.3360000000000003
Li3MnFeCo(PO4)3,2.3362
KNaTi4(BiO6)2,2.3362000000000003
CsPPbS4,2.3363
CdPbF6,2.3364000000000003
FeB2P2(HO4)3,2.3365
Li2MnP2O7,2.3365
Sc2Ti2SiS5O24,2.3365
Pr3CCl5,2.3366
KV3(SeO6)2,2.3366
Na3Nb3GaSi3(PO8)3,2.3369
Y2W2O9,2.3369000000000004
CsKMo4(P3O13)2,2.337
KSmTiO4,2.3370999999999995
Nb2WO8,2.3371
YSn3F15,2.3372
CaCeO3,2.3372999999999995
CaMgUH24C3O23,2.3373
Co2SnC8(ClO4)2,2.3373
GdTa3O9,2.3374
UH12(NO4)2,2.3374
Ti3(BiO3)4,2.3376
KInBr3,2.3376
Ba2CeZrO6,2.3379
KAs4IO6,2.3379000000000003
K3Cr2(AsO4)3,2.338
LiVSiO4,2.3382
LiMnF5,2.3383
ZnBi2P2O9,2.3383000000000003
CaMg6VO8,2.3384
NdIO,2.3385
Na3ZnSn(PO4)3,2.3386
Fe5P6WO24,2.3386
TaPCl10,2.3387
CsClO2,2.3389
NaSc2Ga2PS5O24,2.339
KRb2ScI6,2.339
Li10Sn(PS6)2,2.339
Zn2Ge3O8,2.3392
Sr2GdGaO5,2.3393
LaV3O9,2.3393999999999995
Na6NbZn5P3(SO6)6,2.3394
LiSnPHO5,2.3396
Cs2LiSbBr6,2.3396
CaC2,2.3396
CsV3(SeO6)2,2.3398
Rb2TaCuS4,2.3398000000000003
Li2Mn3(SeO3)4,2.3399
BaYSnSbO6,2.3399
LiTi2V3O12,2.3399
Li6Cr(BO3)3,2.3399
KLaTiO4,2.3399000000000005
Na8NbGa3Si4(PO12)2,2.34
CsMo2P3O13,2.3400000000000003
CaAs2(XeF5)4,2.3400000000000007
Li3Sb3P8O29,2.3401
BrN(OF2)2,2.3401
NaGe2N3,2.3402
Cs3AsI6,2.3403
NbIn3P2(SO6)4,2.3403
Ba4Y2O7,2.3403
TiZnCr(PO4)3,2.3403
Li8PbO6,2.3403
Sb3IO4,2.3404
LiV(PO3)3,2.3404
Na3TiGaSi(PO6)2,2.3404
Rb2YCuBr6,2.3405
TbSbO4,2.3405
Na6Sc4Ta4Si7S5O48,2.3405000000000005
Sr3Pr4O9,2.3406
K3Nb6VO19,2.3407
Nb2Zn4(SO4)9,2.3408
LiVSiO4,2.3408999999999995
Na10Nb2Ga6Si7S5O48,2.3409
KCaPHO4,2.341
Mo12PH24C6N3O40,2.341
Ba2La2MgTi3O12,2.3412
Li2FePCO7,2.3412
OsXeO3F8,2.3412999999999995
Sn4HgB44H124C24(N4Cl)2,2.3413
LiVSiO4,2.3414
K2Mo(SO)2,2.3414
La2SiS5,2.3415
Li2CoSn(PO4)2,2.3415
Na14Nb4Al4Si11SO48,2.3415000000000004
Cs3YO3,2.3416
LaPbNO5,2.3416
B36O5,2.341600000000001
MoW3Se8,2.3417000000000003
Na2Mg2Zr6Si3(S3O16)3,2.3417000000000003
Li4UC3O11,2.3419
LiVSiO4,2.3419000000000003
K2TeS3,2.3419000000000003
Ba2Ti11O24,2.342
Sr(H2N)2,2.342
Cs2Mo(SO)2,2.342
Na4Sc3NbSi3(SO8)3,2.3421
NaNb2In2P5SO24,2.3421
Sr2MgZn2Sn2(PO4)4,2.3422
Na3Y2Ti2P5SO24,2.3422
V2S2O11,2.3422
TbSbO4,2.3422
OsC4(ClO2)2,2.3422
Ho2ZnS4,2.3423
KTi3FeO8,2.3423
K4SnO4,2.3423
BaBSbS4,2.3423000000000003
Na9Mg2Nb10Si9(PO8)9,2.3424
FeH8N3O13,2.3425
Te2MoWSeS,2.3426
Nb4Ag2O11,2.3427999999999995
Li6Br3N,2.3429
Na3NbAl3P5SO24,2.3429999999999995
Co3Sb4(OF)6,2.343
Rb2Mo(SO)2,2.3431
Na8La2Ti2Si5SO24,2.3431000000000006
LuSbO4,2.3433
Cs3GaBr6,2.3433
Na3Fe2P2O8F3,2.3434
Si6BiH54C18N4Cl,2.3435
V(Si2O5)2,2.3436000000000003
Pr4Si2Se3O7,2.3437
Li2FeCO4,2.3439
Li2Co2Si2O7,2.3439
Sr2CuBrO2,2.3439
Cs2KTlCl6,2.3439
Na2Zr4Si3(SO8)3,2.3441
KMgNiIO6,2.3441
CaV2P2(H4O7)2,2.3443
Cs2Tm2Mg(WO4)4,2.3443000000000005
V2Cd6Se5O21,2.3444
RbLiVPO5,2.3445
Li2FeSiO4,2.3447
LiFe4P7O24,2.3447
Ba5LiMo2N7Cl2,2.3448
O2,2.3448
SrEr2O4,2.3449
MgTi4MnZnNiO12,2.3451000000000004
Sn(PO3)3,2.3452
Li2FeBO4,2.3452
Na2Zr8Si5S7O48,2.3453
Na2NbGaSi(PO6)2,2.3453
Na3Nb3AlSi3(PO8)3,2.3454
C,2.3454
RbZrMnF7,2.3454
K4Sb2O5,2.3454999999999995
Cs2ZrMn(MoO4)4,2.3455
Li2Cr3(SiO3)4,2.3455
Al2SiSn2S5O24,2.3456
LiTi2P4H3O16,2.3456
Ca2Ta4Si3(SO6)6,2.3458
Li2Mn4Si4O13,2.3459000000000003
Rb2PrCuCl6,2.3461000000000003
MgZn2(WO4)2,2.3463000000000003
TeMoWSe3,2.3464
Sc3TaSiS5O24,2.3464
Bi2BrClO2,2.3465
FeH4(CO3)2,2.3465
Cs2PrCuCl6,2.3465000000000003
K2NaAlH6,2.3466
Na5Nb3InSi5PO24,2.3467
Ag2SO3,2.3467
YGa2N3,2.3467
KLaTiO4,2.3468
KTlF4,2.3468
LiFeH12(SO7)2,2.3468
CSe2,2.3468
Ni(IO3)2,2.3469999999999995
Na2Zr4Ta4Si7S5O48,2.347
SbClF10,2.3471
Mg6CdNiO8,2.3471
Li2CrPO4F,2.3471999999999995
Cs2Re(ClO)3,2.3472
CaLa2MnO6,2.347200000000001
BaNb4(FeO7)2,2.3473
CsH,2.3475
Cs2CdGe3S8,2.3475
LiSnPO4,2.3476
Li2Nb4O11,2.3476
SrTi(PO4)2,2.3476
Al4Si2Ni13(SbO14)2,2.3477
Si(Bi3O5)4,2.3477999999999994
Te4MoW3Se4,2.3478
HoFe3(BO3)4,2.3479
Na3Y3NbP5SO24,2.3479
Na2CoH4(SeO5)2,2.3479
CaMg(PSe3)2,2.3479
BH2S3N3F4,2.348
NbPO5,2.3481
Mg6VFeO8,2.3482000000000003
InPO4,2.3482000000000003
NaYTi2O6,2.3484000000000003
Ca2IN,2.3485
Ti3Bi2(PO4)6,2.3485
Li4Cr2Si3O10,2.3486
ZnFeF5,2.3487
HfI4,2.3487
Tl2Mo3P3O17,2.3488
SrLi4NiO4,2.3488
TlCl3,2.3488
AgPO3,2.3488
Tl5Re6S8Cl7,2.349
KIO4,2.3492
Ga3NO3,2.3492
Sr2CoGe2O7,2.3492
Y3VH3O8,2.3493
Nb3Te4ClO15,2.3493000000000004
Er18Ti14O55,2.3495000000000004
NaZrNbSnO6,2.3496
H7C2N9O2,2.3496
AgCO2,2.3498
LiMnPO4,2.3498
Na6Al2In2Si3(SO8)3,2.35
CoBi6(SO8)2,2.3500999999999994
NaNbO3,2.3501
CsAu3S2,2.3501
BaSrCeHfO6,2.3501000000000003
Gd3NbO7,2.3502
NaTi8O16,2.3503
K15W7N19,2.3503
RbLi(H2N)2,2.3503
H7WC7NO5,2.3504
KHoS2,2.3505000000000003
Na6La2In2Si3(SO8)3,2.3505000000000003
Mg(BiO2)2,2.3505000000000003
LiVSiO4,2.3507
Sr2ZrTiO6,2.3507
Li2MnF6,2.3507
LiTi2(PO4)3,2.3508
CdPNO5,2.3508
TmSbO4,2.3509
Na7Y2Nb2Si5PO24,2.3509
B10H14S,2.3509
S3N3ClO2,2.351
Na10Al4Si7Sn4S5O48,2.351
NaTiAlP2SO12,2.3511
LaFeGe2O7,2.3511
Li2V(Si2O5)3,2.3511
Ba2NiMoO6,2.3514
MgTiO3,2.3514
La2SiS5,2.3515
YNb2NO5,2.3515
Ca2NCl,2.3515000000000006
Na2Mn2Si2O7,2.3516
Ba3(BrO)2,2.3516
Na3MgMn2SbO6,2.3517
Rb2U2Mo3O16,2.3517
MnZnF6,2.3517
Mg6VCrO8,2.3517
Li4CaNiO4,2.3519000000000005
RbCd(NO2)3,2.352
DyMoO5,2.352
NbBi(TeO4)2,2.3520000000000003
RbErS2,2.3521
Cr3(PO4)2,2.3522
TmSb(PbO3)2,2.3522
Na30Mg20Ta4Si9(S3O16)9,2.3523
Na3LaNbSi2PO12,2.3524000000000003
VAs2H4O9,2.3525
La2MgZnCoO6,2.3526
KBaBiWO6,2.3526
K3IrF6,2.3527
Na3LaTiSi2SO12,2.3528
Bi10(Pb2O7)3,2.3528999999999995
MnC4IO4,2.353
Sb(S8I)3,2.3531
Na4NbAl3(PO4)6,2.3531000000000004
KBi6ClO9,2.3531000000000004
Ba3Ta4TiO15,2.3532
Na3InGe3(PO4)6,2.3532
Co(IO3)2,2.3532999999999995
K3SbI6,2.3534
Li2Mn2Si2O7,2.3534000000000006
HS9N,2.3535
B8O,2.3536
Zn2GaP3H8(NO6)2,2.3536
Co(IO3)2,2.3537
Mg14CoSnO16,2.3537
Te2MoW3(Se2S)2,2.3537000000000003
Li2MnF6,2.3539000000000003
AgH36S8N11O18,2.354
NaCo2P3O10,2.3543
MgCr(SiO3)2,2.3544
Li2V(CO3)3,2.3544
Tl3VO4,2.3544000000000005
KNb5O13,2.3545000000000003
Li3Fe5(PO4)6,2.3546
Na2MgNb(PO4)3,2.3547
LiFeSiO4,2.3549
Ca2Nd2Nb3FeO14,2.3551
DySbO4,2.3553
ZnWF5,2.3553
Ba2Mg(BiO3)2,2.3553
LiMnVF6,2.3554
LiMo2P3O13,2.3554
Ta2FeO6,2.3554000000000004
Na6Mg4Zr4Si3(S3O16)3,2.3555
Hf2N2O,2.3555
MgV2P2(H4O7)2,2.3556
Na4AlFe3O8,2.3557
Ba6Nd2Fe4O15,2.3557
LiVPO5,2.3559
NaZrTi(PO4)3,2.3562
MnWO4,2.3563
NaLaZr2O6,2.3563
K5U2O4F9,2.3563
Li4SnS4,2.3564
Al2Cr3(SiO4)3,2.3564
Zr(NF3)2,2.3565
NaNbO3,2.3565000000000005
CsRb2AsI6,2.3568
Na6CaGe7(PO4)12,2.3571
Na3ZnSn(PO4)3,2.3572
Li6I3N,2.3574
K2O2,2.3575
CaTiCr(PO4)3,2.3575
FePb2WO6,2.3575
RbNaMg14O15,2.3576
Rb2Mo3P3O17,2.3576
BiTeIO3,2.3576
Li2PtF6,2.3577
NaTaTi3(PO4)6,2.3577000000000004
Rb3NbS4,2.3577000000000004
YFe3(BO3)4,2.3578
V2H28C12Cl2O7,2.3578
Cs2MgMo2(O2F3)2,2.3578
SN,2.3579
CrH15N6Cl2O,2.3579
Sn2P2O7,2.3579000000000003
YTaBi2O7,2.3581
Na3NbInSi2PO12,2.3581000000000003
Mg(GaO2)2,2.3585
Te(WO4)2,2.3586
Li2V2Si5O13,2.3586
LiMnFeF6,2.3587
Na3YSn3(PO4)6,2.3587
LiMg30BO31,2.3588
Ba2YMgBiO6,2.3589
MgBi2P2O9,2.3591
Cs2KScI6,2.3591
Li6Cr3Ni(PO4)6,2.3592
DyNbO4,2.3592
VPH5NO6,2.3592
Na7MgSbO6,2.3592
AlMo(WO4)2,2.3592
Li4FeO3,2.3593
NaLaHfTiO6,2.3593
WOF3,2.3593
LiFe2F5,2.1759
Li3Fe(BO3)2,2.1759
Li2CeO3,2.176
FeP2HO7,2.1761
Li8FeO5F,2.1762
TlHg5Br11,2.1763
RbCrCoF6,2.1763
Nb4Ag2O11,2.1763
LiCuCO3,2.1764
LiFe2OF5,2.1765
Na3Fe2(PO4)3,2.1766000000000005
CaVP2O7,2.1767
Na3Nb2In2SiP5O24,2.1767000000000003
Li2Co(Si2O5)2,2.1769
GeTe,2.1769
VO2F,2.177
YNb2NO5,2.177
LiMg6FeO8,2.1772
GdPtF7,2.1773
Rb3GaBr6,2.1773
KPrSiSe4,2.1773
LiFeP2O7,2.1773
Li2VCr(P2O7)2,2.1774
Te(WO4)2,2.1774
K3Na8FeH12S6(NO18)2,2.1775
As4Pb8Cl6O11,2.1775
KUP3O11,2.1775
TlCdI3,2.1776000000000004
RbGeSbO5,2.1777
Na4SeS,2.1777
BaSrCeSnO6,2.1779999999999995
Na6Ta4Ti4Si9(SO16)3,2.178
Na3CrBAsO7,2.178
K3AsI6,2.178
Na10Nb2Al6Si7S5O48,2.1781
V2Ni2O7,2.1782000000000004
Y2MgSe4,2.1783
Na12Ca2Nb4(SiO4)9,2.1783
Te2Mo(WSe2)3,2.1785
LiFeP2O7,2.1785
Li2VF5,2.1785
NaH6BrO5,2.1786
SmIO,2.1787
LiVGeO5,2.1787
Ti4Nb(BiO3)7,2.1789
Tb6Mg(GeS7)2,2.1789
K2TiHgF6,2.1789
HgH12C12S2(NO2)2,2.1789
Na3Fe2(PO4)3,2.179
LuPS4,2.179
KCa2Ta3O10,2.1790000000000003
V(PO3)3,2.1791
CsVSO6,2.1791
AlFeO3,2.1792
Ag2P2H2O7,2.1792
SnH4S6(NCl)6,2.1793
Ni4P2O9,2.1794
Rb2NbAgS4,2.1794
CaLaI5,2.1794
YBi(OF)2,2.1794
Li4VF6,2.1795
Tl2CrO4,2.1795
BaSrCe2O6,2.1796999999999995
Li2Cr(PO3)5,2.1797
MgV4ZnO10,2.1797
CsTcNClO4,2.1798
Na15Ca8Nb4P15(SO24)3,2.1798
CsCa2Ta3O10,2.1798
LiNi5P3O13,2.1798
Li2FePCO7,2.1799
Bi2CO5,2.1799
BiXeF7,2.1799000000000004
V6H2Pb4Se3O26,2.18
Cs4In2S5,2.1801
TeHO3,2.1801
Na3Ca2Nb10Si3(P5O24)3,2.1801
GeW2C10(BrO5)2,2.1802
H5C2S2N3,2.1802
Sr3Fe2TeO9,2.1802000000000006
HgAs2Xe5F22,2.1803
CaTi(SO4)3,2.1803
LiFeP2O7,2.1803
Na2Ta4Si7Ge4S5O48,2.1804
Cs2Th(PS3)3,2.1804
LuI3,2.1804
CaV(SiO3)2,2.180400000000001
LiSbWO6,2.1806
Te2MoWSe2,2.1806
LiMg30CoO32,2.1806999999999994
Li2P8W3O29,2.1807
Li3Fe2(PO4)3,2.1807
GeBiNO7,2.1807
BaCaSnWO6,2.1807000000000003
NaPrS2,2.1807000000000003
AlGa3N4,2.1808
Te3MoWSe,2.1808
Na6Y3NbSi4(SO12)2,2.1808
Ba7Ca2Mn3V2O20,2.1808
Cs2LaCuCl6,2.1808
Li3Fe(PO4)2,2.1808999999999994
BaHgO2,2.1809
Sr2YbUO6,2.1809000000000003
Cs2TbAuCl6,2.181
Ge2S3I2,2.1811
BiOs2(CO)6,2.1812
V2Se2O11,2.1812
Li2FePCO7,2.1812
K4(BSe)9,2.1812
Mg3AlFe(SiO4)3,2.1812000000000005
Na3Ti3InSi3(SO8)3,2.1814
NaSm3GeS7,2.1816
NaCa2Ta2P3(SO8)3,2.1816
Na4Mg3SnP2(SO6)4,2.1816000000000004
LiMg6CO8,2.1817
Li3V(BO3)2,2.1818
La3BeAlS7,2.1818
HPb2IO2,2.1819
Na7Zn3Ga(SiO4)4,2.182
MgMnRe2(HO5)2,2.182
KCr12Si8BrO28,2.1822
BaTa6O16,2.1822
Li2FeOF3,2.1822000000000004
CaNdCrO4,2.1822000000000004
LaTiP(SO6)2,2.1823
MgCrGaO4,2.1823
CaMg6CrO8,2.1824000000000003
Li3Fe(BO3)2,2.1825
MgV2(PO5)2,2.1826
Sr4Li2Si4N8O,2.1827
Cs2Se,2.1827
K3RhF6,2.1828
Na10Nb4Ga4Si9(SO16)3,2.1828000000000003
Rb3RhF6,2.1829
Zr(InBr3)2,2.1831
NaLa2Nb2P5SO24,2.1832
LiNi4(PO4)3,2.1833
H29Pd3S3N9O10,2.1833
Nd2MgSe4,2.1834
BaThBr6,2.1838
Li3VPCO7,2.1838
TeAsF5,2.1838
H6C3SN3O2F3,2.1838
SrV2(AsO5)2,2.1839
LiFePO4F,2.1839
UMoO6,2.1839
Pm2MgSe4,2.1841
K2DyAuCl6,2.1841
BaTm2NiO5,2.1841
Na6Ta3Al5Si6(SO8)6,2.1841000000000004
K2Be2NiH6F8,2.1842
CsK2AuO2,2.1843
CoH2(CO2)2,2.1843
Li5Ni2O2F5,2.1843000000000004
Na3Fe2(PO4)3,2.1844
MnNbH8(OF)5,2.1845
Li2Cr3(P2O7)2,2.1845
K3GaBr6,2.1845
LiFe4(PO4)3,2.1846
Li2ZnGeS4,2.1846
Nb10Pb14O39,2.1847
MgV2(CO3)4,2.1847000000000003
HgC2(SN)2,2.1848
NbBi2O5F,2.1849
Li4Ca3(SiN3)2,2.1849
K3SbS4,2.1851
Mn2Te3O8,2.1851
Gd3Si2BrO8,2.1851000000000003
Ba9(NdS6)2,2.1851000000000003
Ti2Al2SiS5O24,2.1852
Li2FePCO7,2.1853
Fe4Si(CO)16,2.1853
CaSi4WO10,2.1854000000000005
Li3Fe2(PO4)3,2.1855
Ge3Pb11O17,2.1855999999999995
Na3Fe2(AsO4)3,2.1857
Na9CaNb5(SiO4)9,2.1857
FePO4,2.1857
CsTlF3,2.1858
Te2Mo3WSe6,2.1858
Na2CaNb4Bi2O15,2.1858
Na2Nb4Si5SO24,2.1858
Rb3Sm(PS4)2,2.1861
Rb2UCr(IO6)2,2.1862
SrLi2Ta2O7,2.1863
MgH12(SO6)2,2.1864
Na9Nb2Zn10P3(S5O24)3,2.1866
Na3AlSi3Ge3(SO8)3,2.1867
KSrBiWO6,2.1867
SrVPO6,2.1868
Na6Ti3ZnSi2(PO6)4,2.1868
MgWBr4O,2.1868
SrCrF4,2.187
SrTe3O8,2.1871
PrPaO4,2.1871
SrHgO2,2.1871
CeZr3O8,2.1872000000000003
CsC4S4N8O2F,2.1873
Pr2MgSe4,2.1875
Na6In4Ga4Si3(S3O16)3,2.1875000000000004
MnFe2Pb8F24,2.1876
BaCaCeTiO6,2.1876
ThV2O7,2.1877
CsPbCl3,2.1878
Ti2Ga2SiS5O24,2.1879
NbTeCl9,2.1879
MgV2(PO5)2,2.1879
Na4CaFe4(PO4)6,2.1879
Pr7(S2Cl3)3,2.1879000000000004
Li2AlVO4,2.1881
NaZnFe(PO4)2,2.1881000000000004
LiNiOF,2.1882
Ba2InS4,2.1883
Sr(YS2)2,2.1883
SrV2(CoO4)2,2.1884
Mg3Fe2H4(Se3O10)2,2.1885000000000003
K2Mn3V2CO11,2.1887
Li3IrF6,2.1887
Mg(ScS2)2,2.1887000000000008
Cs2InAgF6,2.1888
Na6NbGa3Si4(SO12)2,2.1889
Ti2Fe3Bi3Pb2O15,2.1889000000000003
Cs3Tl2Cl9,2.189
Rb2DyAuCl6,2.189
SrVClO3,2.189
Ba4La2Ti3Nb2O18,2.1891000000000003
BH2S3N3F4,2.1892
V2Bi4O11,2.1892
LiNi3O3F,2.1894
La2Ce2O7,2.1894
Ho14(PbS8)3,2.1894
BaTeO4,2.1894
ZnFe3(P2O7)2,2.1894
Na8MgTi3Si4(PO12)2,2.1894000000000005
Nb2Zn2FeO8,2.1897
Na3Li3Mn2P2(CO7)2,2.1898
Hg2SeO3,2.1898
La3AlZnS7,2.1898
Na3NbS4,2.1898
Tb2WO6,2.1899
H4I3NO9,2.1899
Na6TiZn3P4(SO12)2,2.19
MgV4(H4O7)2,2.19
KRbMg30O31,2.1900000000000004
CdPtF6,2.1901
LiV(CO3)2,2.1901
MgAgF3,2.1901
Ru(CO)4,2.1901
Li3Fe3(PO4)4,2.1903
Cs3GaO3,2.1903
LiVP2(HO4)2,2.1903