formula,band_gap (MP)
Li24Ti5Cr7O36,1.1757999999999995
Gd4(GeS4)3,1.1759
K9Fe2S7,1.1760000000000002
Zn2InGaO5,1.1762
NiS2O9,1.1763
CsHo2Ag3Te5,1.1763
Nb3H20C5Cl7O5,1.1763
Na3ScN2,1.1765
Zr6CCl14,1.1765
Ca11AlSb9,1.1765999999999996
Li5V3P8O29,1.1766
Na4Mg(MoO4)2,1.1767
Li2HgO2,1.1767
Ba2YInSe5,1.1767999999999996
Li32Mn11Cr5O48,1.1768
MgV4(O2F)4,1.1769
Na6Mg4Ti4Si3(S3O16)3,1.1769
Na6NiO4,1.1771
Na2Al2As3,1.1771000000000005
LiFe2F9,1.1771000000000005
MgCrO2,1.1771000000000005
K2SnBr6,1.1772
H12C4Se3Br6N,1.1772
V3(O2F)2,1.1772
CaMo3P3O13,1.1772000000000005
MgV2O4,1.1772999999999998
V4(OF3)3,1.1773
Zn(FeO2)2,1.1773000000000002
Li(CoO2)4,1.1774
Rb5Mo3O3F14,1.1774
Te2As2Se8S(OF6)2,1.1774
Li3V(OF)2,1.1774999999999998
Li9Mn2Co5O16,1.1774999999999998
Nb2Bi2PbO9,1.1775000000000002
Li6V2OF11,1.1776
Na6Mg6SiGe2S11O48,1.1777
Na14Ca5Si6Sn3(SO8)6,1.1777000000000002
KIn7S8,1.1777000000000002
Tm2MgSe4,1.1778
CsReBrCl3,1.1778
Li3Mn2O5,1.1778
Li6MnFe3(PO4)6,1.1778000000000002
Na3LaSi2SnSO12,1.1779
K3Mn2Cl7,1.1779
BaYCuS3,1.1779000000000002
MgSe2(NO7)2,1.1779000000000002
MgFe6O7F5,1.178
VMoO5,1.1782
K2YAuI6,1.1783
MgV4Ag2O11,1.1783
Cs3GaI6,1.1783
NbV3O8,1.1784
Na8Mg3Ti(PO4)6,1.1784
K2AlOF5,1.1785
RbIn3S5,1.1785
Tm2CdS4,1.1785
Ta(ICl)2,1.1785
ScVO3,1.1786000000000003
LiV3CrO8,1.1787
Fe4O3F5,1.1787
MnVP2(HO5)2,1.1787999999999998
Li3V3P8O29,1.1787999999999998
Na4MgTi3Si3(SO8)3,1.1787999999999998
ZnSnO2,1.1788999999999996
Li4Mn3O7,1.1789
Ga2SeS,1.1789
Re3PbS6,1.1789
Ba(BeN)2,1.1789999999999998
La2Pd2O5,1.1790000000000005
ZnIn2O4,1.1790999999999996
Mn(GaS2)2,1.1791
Li2Cu(PO3)3,1.1791999999999998
BaMg6CO8,1.1792999999999996
Mg2IrWO6,1.1793000000000005
NdMn2O5,1.1794000000000002
NaCoP3(H4O5)2,1.1794999999999998
RbTbS2O9,1.1795
AsOsS,1.1795
H12C71F4,1.1795
MgV4O7F5,1.1795000000000002
Li4V2Cr3Fe3O16,1.1795999999999998
Ta(NF2)3,1.1796000000000006
CaPr(MoO3)2,1.1796000000000006
Eu(AlS2)2,1.1797000000000004
Ba3Y3N5,1.1798000000000002
CsMg30BiO32,1.1799999999999995
SrZr12B2I5Cl23,1.1801
NaB6S4(I3O4)2,1.1801
RbRuF6,1.1801
SbP3C(NCl5)3,1.1802
Mg(Mo3O8)2,1.1803
MgV4(OF)6,1.1804
Ce(ClO4)4,1.1804
Zn3Mo3O8,1.1804999999999994
Na3Ca7Ti7Nb3O30,1.1805
Mg(Mo3O8)2,1.1807
MgCo2(SiO3)4,1.1807
Li2Ti2S5,1.1807
KMnH4Cl3O2,1.1807
Li5Mn3O8,1.1807000000000003
Te4Mo3W(SeS)2,1.1807000000000003
Mn2P4O13,1.1808
Rh2(CN2)3,1.1808
Ba3MoN4,1.1809000000000005
TiTlPS5,1.1811
RbV(PO4)2,1.1812
Cs2Na4Cu2Si12H4O31,1.1812000000000002
Er4CdS7,1.1812999999999998
Ba2VN3,1.1814
C3N4,1.1814999999999998
Li2Mn3SbO8,1.1814999999999998
NaSe2,1.1815000000000002
K2GaAgCl6,1.1817
Na3Sb5O14,1.1817000000000002
Y(CuSe)3,1.1817000000000002
Ba2MgMn2O6,1.1818
V2O3F,1.1818
LiMn2(CoO4)2,1.1821000000000002
LiMnH8(SO6)2,1.1821000000000002
Ba2TaMnO6,1.1822999999999997
Zn2Si2As3P,1.1822999999999997
MgV3SnO8,1.1823
Te2MoWSeS,1.1823
Zr(Se2Cl3)2,1.1824
MgMn2(SbO3)4,1.1825
MgCr2(PO5)2,1.1825
MgFe12(OF)12,1.1826000000000003
LiFeO2,1.1826999999999996
Na2Mg2Ti2SiS5O24,1.1828
Zn(SbO2)2,1.1829
LiCo5O3F5,1.1829999999999998
Te4As2S(OF6)2,1.1831
Li3Mo(PO3)8,1.1831
Na6Nb8Zn4Si9(SO8)9,1.1831000000000005
TbCuS2,1.1832000000000005
Tm2S3,1.1832000000000005
MoPO4,1.1832000000000005
PrS3(NO3)3,1.1833
U(MoO6)2,1.1833
ICl,1.1833
Ba3MgV2O8,1.1833
BaSn2S3,1.1834999999999996
KCePCO7,1.1836
Sr7GeN6,1.1837999999999995
AgBi(PS3)2,1.1837999999999995
Mg30VFeO32,1.1838999999999995
LaCuTeO,1.1839000000000004
K4W2Cl10O,1.184
Rb2Ce(NO3)6,1.184
PrZn(MoO3)2,1.1840000000000002
La4CI6N,1.1841
V2O3F,1.1841
SnHgP14,1.1841
MgBi4(MoO6)2,1.1842000000000006
Ca(WO2)4,1.1844
HoCuPbSe3,1.1844
BaMn2P2O9,1.1844
MgFe4(TeO6)2,1.1845
DyCuSeO,1.1846000000000003
SiPbO3,1.1847999999999992
Tb(CuSe)3,1.1848
Rb2Pd3S4,1.1848999999999998
TlP5,1.1848999999999998
CaCoMo2O7,1.1849999999999996
Al2Bi7Ru(BrCl4)2,1.185
Li2CuPO4,1.1851000000000005
Cs3Cr2Br9,1.1852
MgFe12(OF)12,1.1852
Tb2MnNiO6,1.1852999999999998
Dy4CdS7,1.1853000000000002
In10(Pb2S7)3,1.1853999999999996
Rb2Pd3S4,1.1854
Ba2ErInSe5,1.1854
Li2VNi(PO4)2,1.1854000000000005
Ca3(AlAs2)2,1.1854999999999998
Cs3Ge9(H3N)2,1.1855
Ca3Y2N4,1.1855000000000002
Ba2Na7Ti16Bi7O48,1.1856
H13Se2N3O8,1.1857
Na4ZnSi3Ge3(SO8)3,1.1858
MgMn4(O3F)2,1.1858
Mo3(PO4)4,1.1858999999999995
Mg14FeBO16,1.1859000000000002
Mg2VSbO6,1.186
MoPO7,1.1861
Hg(BiS2)2,1.1861000000000002
Na10Ca2Si7Sn6S5O48,1.1861000000000002
Se2Br3N,1.1861000000000002
K3Al2As3,1.1862000000000004
MoPNO7,1.1863
BaFe12O19,1.1864
Na2PdCl4,1.1864
Y4CdS7,1.1864999999999997
LiMg2Au,1.1865
Li2Mn4OF8,1.1865
Li2TiNiO4,1.1865000000000006
Gd4Si2S3O7,1.1865999999999994
CsEu2I5,1.1866
Li3Mn(CoO3)2,1.1866999999999996
K6NbTlAs4,1.1867
Ga3Te3I,1.1867
CrFe2C10(Se2O5)2,1.1868
MoH4O5,1.1869
Zn3Fe4(SbO4)6,1.187
Li9Mn2Co5O16,1.1871
K2AgSb,1.1871
MgMn2(FeO2)4,1.1871999999999998
Cs2S5O,1.1871999999999998
Li3V3P8O29,1.1872
Tl2S7N8,1.1872000000000005
Na4CaSi2SnSO12,1.1873
Rb2U2Cl4O7,1.1873
Na3GeTe3,1.1873
CsEr2Ag3Te5,1.1873
Li9Mn2Co5O16,1.1873999999999998
CsRb2GaI6,1.1875
Fe3OF5,1.1875999999999998
NaV2O5,1.1877000000000002
Li4Fe3TeO8,1.1877000000000004
Li3V3P8O29,1.1878
Rb2FeAuF6,1.1878
CsDy2Cu3Se5,1.1878000000000002
TeWS,1.1878000000000002
CaZrS3,1.1878000000000002
TmTlSe2,1.1879
Co(Bi3O5)4,1.1879
Li7Mn4CoO12,1.1879
Nb3Sb(PO4)6,1.1879000000000002
Bi6B10O21,1.1879999999999995
SrMnFeBiO6,1.1880000000000006
HfN2,1.1880999999999995
Ti(TlS2)2,1.1882
Li2VCr3O8,1.1882
Zn2NiO3,1.1883
Na4FeO3,1.1884
KVPO5,1.1885
BN,1.1885
TmCoO3,1.1885999999999997
KMg6BO7,1.1886
Te4MoW3(SeS)2,1.1886
Yb(ErSe2)2,1.1887
MgMn2(SeO3)4,1.1887
Li5Mn3O8,1.1887
UH5(SeO5)2,1.1887
MgV2Cd2O7,1.1889000000000003
MgFe4(O3F)2,1.189
ZnRe2(MoS4)2,1.189
Na2TaAuF6,1.189
Cs3Hf2CuTe10,1.189
Sb2WO6,1.1890999999999994
MnVO4,1.1890999999999998
Li3Co(BO3)2,1.1890999999999998
Ba2MgFeWO6,1.1892
AgHg2PO4,1.1892000000000005
K2MnSO4F3,1.1893
Mn(Bi5O8)5,1.1893000000000002
Na5MnO4,1.1895
MgVCr2Fe3(PO4)6,1.1895000000000002
Mg3V2O7,1.1895999999999995
CsSnSe3,1.1895999999999998
Tb2HfS5,1.1896000000000004
RbMg6MnO8,1.1896000000000004
TeMo2Se2S,1.1897000000000002
LuInO6,1.1897999999999995
Gd2SCl4,1.1898
Rb4Ti2P6Se25,1.1898
Fe6OF11,1.1898
TaV(Cu3S4)2,1.1898000000000004
RbMg6CrO8,1.1898999999999995
Nb2Te4Cl10O,1.19
LiCo2C2O7,1.19
Li3SbS4,1.19
NdVO3,1.1900999999999993
Na6CaSi4Sn3(SO12)2,1.1902
CaMnZnAs2H3O10,1.1903
Li5V3P8O29,1.1904
KAgO2,1.1904
MgFe6O7F5,1.1905
KPrInSbO6,1.1906
Li24Ti5Cr7O36,1.1906
Li3V4O7F5,1.1907
Li5Fe4(P2O7)4,1.1907
K14P16Pd9O56,1.1907
Te4MoW3(SeS)2,1.1908
BaSrCeNiO6,1.1908
ZnFeAs2O7,1.1908
CaV2P3HO12,1.1908999999999996
Mn6OF11,1.1909
Ca(WO2)2,1.1909
HoSO,1.1909999999999998
Ca7HfN6,1.1909999999999998
Te4MoW3(SeS)2,1.1909999999999998
MnCrO4,1.191
Mg30AlCoO32,1.1911999999999994
Na3LiCuPCO7,1.1911999999999998
Fe3OF5,1.1912
Mn(FeO2)2,1.1912999999999996
Fe3(OF2)2,1.1913
Fe2OF3,1.1914000000000002
KNd(SnO3)2,1.1914999999999996
MoWS4,1.1915
Cs2AgSbBr6,1.1916000000000002
Na10Mg3Ti5Si6(SO8)6,1.1916000000000002
Na3Mn2P2(CO7)2,1.1916000000000002
Li4Cr3Ni(PO4)4,1.1917
Sr2MgZnMoO6,1.1917000000000004
LaCu(WO4)2,1.1917999999999995
CaPdAu2,1.1917999999999995
NbFeO4,1.1919
CsAuSe3,1.1919000000000002
Li2V3TeO8,1.1921
MgFe6(OF)6,1.1921
TaFeO4,1.1922
MgMn2O4,1.1923999999999997
Nb4P2S21,1.1923999999999997
DyCoO3,1.1923999999999997
Sr4As2O,1.1923999999999997
Cs2MnS2,1.1924
Li2MnSnO4,1.1925
Rb14Si6Ge4O17,1.1925
V2(OF)3,1.1925
Fe6O5F7,1.1926
Mg2Sc3CrS8,1.1926999999999994
MgNb2Cu2(O3F)2,1.1927
HfMg14TiO16,1.1928999999999998
Li32Mn13Cr3O48,1.1929
Sr(AuF6)2,1.193
ZnSnP14,1.1930000000000005
Nd3CuSnSe7,1.1932
Sb2Te2O9,1.1932
Mo(WS3)2,1.1932000000000005
Fe6O5F7,1.1932999999999998
KSrSbWO6,1.1933999999999996
Fe2OF3,1.1933999999999998
Li5V3P8O29,1.1934
Tl4HgI6,1.1934
ZnMo2P2O9,1.1934
Nd3S3N,1.1935000000000002
CoAgO2,1.1935000000000002
Li5SiP3,1.1936
Ca7ZrN6,1.1936999999999998
RbMnBr3,1.1937
TeMoWSe2S,1.1937000000000002
Li5SbS4,1.1939000000000002
Sn(PS3)2,1.1942999999999997
MgNb2(SBr)4,1.1943
LiCoSiO4,1.1943
La4S3N2,1.1943
V3(PO4)4,1.1944
Fe5(OF4)2,1.1944
Cr3(PO4)2,1.1944000000000004
LiSbO3,1.1944999999999997
Na6Zr4Si7Ge4S5O48,1.1945
Mg3V2O6,1.1945999999999994
Ba2UPbO6,1.1945999999999994
Fe4OF7,1.1946
Dy2HfS5,1.1946000000000003
Ba3Y5(CoO5)3,1.1946999999999997
In10(Pb2S7)3,1.1947
Mo(WSe3)2,1.1948
V5O12,1.1948
Na2Y4Nb4Si5S7O48,1.1948
BaMg6SnO8,1.1948999999999996
MgFe8(OF)8,1.1949
BaCu2(HgO2)2,1.1949
Li2V3SnO8,1.1949
Li4Ti3V3(FeO8)2,1.1950000000000005
Sr2HfMgCrO6,1.1951
MgV2Zn4O8,1.1951
Fe6O5F7,1.1952
ZnWO4,1.1952000000000007
NpAgSeO5,1.1953
Cs3Zr7BCl20,1.1953999999999998
Cs2Hg3Se4,1.1953999999999998
Li2TiFe2O5,1.1954000000000002
Li3Mn(PO4)2,1.1956
Mo3WS8,1.1957
Mg14NbCuO16,1.1957999999999993
Li4Mn3O7,1.1959
Fe6O5F7,1.1959000000000002
Na5Bi2As(CO4)4,1.1959000000000002
P2H12Rh(CO)4,1.1960000000000002
Ho4CdS7,1.1961
Ca(SO5)2,1.1961
Fe3OF5,1.1961
Fe2OF3,1.1962
Cs3GeTe3,1.1962000000000002
VFeO4,1.1962000000000002
Na2Zr4Si5Sn4S7O48,1.1964
NaMo2(P2O7)2,1.1965
Dy2ZrS5,1.1966
Fe3OF5,1.1966
K3Cu5O4,1.1967
CaV6O11F,1.1967
Fe10OF19,1.1967000000000003
MoWSe4,1.1968
Fe2OF3,1.1968
TeMoWSe2S,1.1969
K6Fe2O5,1.1969
RbV(PO4)2,1.1969
Li6V3P8O29,1.1969
K2P2PdO7,1.1969
Na2BiO3,1.1969999999999996
Sr5Zn(PbO4)3,1.197
FeH12C2(N5O3)2,1.197
Cu2SiS3,1.197
Li4Fe2Co3Te3O16,1.1970999999999998
MgCo2(CO3)4,1.1972
Li3V3P8O29,1.1973
Li2PdO2,1.1973000000000005
NdBi2ClO4,1.1973999999999996
Mg2Ni3O8,1.1973999999999996
BaNb6O17,1.1974
CsTb2Cu3Se5,1.1974
Ca6La14Mg7Ti13O60,1.1974
S4N2O3F,1.1974999999999998
CsTa4P3S19,1.1975
Li24Ti5Cr7O36,1.1976
TeMoWSeS2,1.1977000000000002
SrAuO2,1.1977000000000002
K2WSe4,1.1978
Hg9Bi2(AsBr3)4,1.1979000000000002
Li2V3SnO8,1.1979000000000002
BaIn8Ni2O15,1.1979999999999995
Tb2ZrS5,1.1979999999999995
NaFe2PbF9,1.198
NaSrZrVO6,1.198
Li4Mn3O7,1.1980999999999995
HfSnS3,1.1981000000000002
Sm2Pt2O7,1.1981000000000002
MgFe4(OF)4,1.1981000000000002
Ba2SnWO6,1.1981000000000002
MgFe4O5F3,1.1981000000000002
Ba3MgMn3O9,1.1981000000000002
H2Ru6C18SO20,1.1982
Li5V3P8O29,1.1982
Li6V3P8O29,1.1982
Cd3S3O20,1.1983
SnAs2O7,1.1983
Rb3La(Cl3O)2,1.1984
Sr3Li4Nb6O20,1.1984
Nb2Co(P2O7)3,1.1986
Al3Bi5I12,1.1986
Rb4Te8O23,1.1986000000000003
LiVCrP2(HO5)2,1.1987
BaLiH3,1.1987
Cd(NCl)2,1.1988
FePH5CO8,1.1988
Ba7In2(Se3F4)2,1.1988
Ca4SiP4,1.1988000000000003
Fe6O5F7,1.1989
SrCuSeF,1.1989
Li4VNi3(PO4)4,1.1989
Fe4O3F5,1.1990999999999998
MgVMoO5,1.1992000000000005
BN,1.1992000000000005
ZnCu2(WO4)2,1.1993999999999998
Ta2MnZnO8,1.1994000000000002
Li4Ti3Fe3(SnO8)2,1.1995999999999998
Rb2Hg3Te4,1.1996999999999998
Sr2ReN3,1.1997
Li4TiCrO6,1.1997999999999998
MgV3(OF)4,1.1997999999999998
Sr4Mg(SO4)4,1.1997999999999998
Dy2Ti2O7,1.1998000000000002
VP2O7,1.1998999999999995
Cr4H67C20(NO)16,1.1999
Na2Zr2Si3Sn2(SO8)3,1.1999000000000002
MgMn2(FeO2)4,1.1999999999999995
SrLaVFeO6,1.2001
Se2NCl3,1.2001
SnCl3O4,1.2002
LiV2O3F,1.2002000000000002
Li4CrNi3(PO4)4,1.2002999999999997
In2Bi4Pb4S13,1.2003999999999992
KCu3SnSe4,1.2004
Li3MnSi2O7,1.2004
NiPO4,1.2005
Fe4O3F5,1.2005
Li3MnAl2O6,1.2006
Li4V3Sb5O16,1.2006000000000006
LiMn2OF3,1.2007
YbTe4Pb3,1.2008
Al4SiC4,1.2009
Sr2Mn2O5,1.2009
CrPO4,1.2009999999999998
MgCrAs2O7,1.201
MgAl4Cr2O10,1.2010999999999994
Li2Mn2FeO6,1.2011
NaCrNO6,1.2012
KGd2Cu(MoO4)4,1.2012
Cd2P3Cl,1.2012
Na3MnBPO7,1.2012000000000005
CaFe2P2HO9,1.2012999999999998
Li3MnVP2(O4F)2,1.2013000000000005
Ce2Te7Br2O17,1.2014
Li6V3P8O29,1.2014999999999998
YZnAsO,1.2015000000000002
RbTlO,1.2016999999999998
Na6CaSi6Sn7(SO8)6,1.2018
KCaZrBiO6,1.2018
Li5NiOF5,1.202
Li4Ti3V3(CoO8)2,1.202
Sr2MnNbO6,1.2020000000000004
NaClO3,1.2021999999999995
Fe4Te2MoC14(SO7)2,1.2022
Li3NbS4,1.2022
MgV4O5F7,1.2022000000000002
Li3V3P8O29,1.2024
PdSeO4,1.2024
VSb2NCl14,1.2024
Li3V3P8O29,1.2026
TeMo2SeS2,1.2026
Li2Mn4OF8,1.2026
YTa(WO4)2,1.2026000000000003
K2PdCl6,1.2027
MgFe8(OF)8,1.2028
Ce(SeO4)2,1.2028
MgVSbO4,1.2030000000000003
SrLaCuS3,1.2031
Li9Mn2Co5O16,1.2031999999999998
Rb2PbO3,1.2033
NaAgC2,1.2033
LiFeSbO4,1.2033000000000005
Cs2Sn3HgSe8,1.2033999999999998
Li9Mn2Co5O16,1.2033999999999998
Li3V3P8O29,1.2034
Ba2CaAl2(Fe4O7)2,1.2034000000000002
Li32Mn13Cr3O48,1.2035
Li2CeN2,1.2035999999999998
LaB5IO11,1.2036000000000002
K4Ti3Co(PO4)6,1.2036000000000002
Rb2MnCl6,1.2037
Na6Y4Si5Ge4S7O48,1.2037000000000002
MgMnV3O8,1.2037999999999998
Ce2PbSe4,1.2038000000000002
Mn2V2O7,1.204
LiOsF6,1.2041
KCr2FeHO8,1.2042000000000002
Li32Mn13Cr3O48,1.2042000000000002
MoS2,1.2042000000000002
SrMg14MnO16,1.2042000000000002
Li9Mn2Co5O16,1.2043
Nb3Se10Br3,1.2044
Li12CrCo3P4(CO7)4,1.2044
SbN2F5,1.2045
Sr3(BiN2)2,1.2045000000000003
RbTlS2,1.2046
BaYMn2O5,1.2046
Li9Mn2Co5O16,1.2046
H10S(NO2)2,1.2048
AsIF12,1.2048
Li5SbS,1.2049
K2PdBr4,1.2049
NaV2O4,1.205
Li4Ti3V2Ni3O16,1.2050999999999998
Li7Mn2(CoO4)3,1.2052
Y3AgO5,1.2052
BaLaCuSe3,1.2052999999999998
LiMn(PO3)4,1.2053
Li9Mn2Co5O16,1.2053000000000005
MgV5O12,1.2054999999999998
Na2Nb4In4Si5S7O48,1.2055
LaCrBiO6,1.2056
MgV4O8,1.2056
LiLuZnFeO4,1.2056999999999998
Pr6Ge3Se14,1.2057999999999995
LiV4O5F7,1.2058
Rb2TlAsBr6,1.2058
V2Ag4O7,1.2058
Li2CuPO4,1.2059999999999995
Ca7CN6,1.206
CuB2P2(HO2)6,1.206
MgV4O7F5,1.2060000000000002
Li4Ti4V4NiO18,1.2060999999999995
LiZn2(FeO2)4,1.2061000000000002
V2Ni(PO5)2,1.2062
MgZn2(SbO3)4,1.2062
ReH22C4S4N8Cl8O3,1.2063
NaCa2LuSi2O7F2,1.2063000000000006
Ca2TaFeO6,1.2064
K4Ti3S14,1.2064
Fe5(OF4)2,1.2064
MgTi2(SeO3)4,1.2065
MgV3CoSn2(PO4)6,1.2066
Li7Mn5O12,1.2066
Li5Mn6O12,1.2066
HgPSe3,1.2066
CsCdInTe3,1.2066
CoP3NO9,1.2067
TaNF6,1.2069
LiV2CrO6,1.207
Li7Mn7P6(O8F)3,1.2070000000000003
Li24Ti5Cr7O36,1.2071999999999998
MgV4P2O13,1.2072000000000005
V4(PO5)3,1.2072000000000005
Na5Fe2P2(CO7)2,1.2073999999999998
Ca2PdPt,1.2073999999999998
FeHO2,1.2074
KHgBr3O,1.2074
Na3VSiBO7,1.2076
MgAu4Se4(ClO3)4,1.2076
RbZr6MnCl14,1.2076000000000002
Li3CoO3,1.2076000000000002
SnH6CBr3N,1.2077
K2HgS4,1.2077
La3Se4Cl,1.2077999999999998
MgCd2(ClO2)6,1.2078
Cu4SiP8,1.2078000000000009
Li7Mn5O12,1.2079
Li9Mn2Co5O16,1.2080000000000002
MnNb2ZnO8,1.2081999999999995
Zn(FeO2)2,1.2082000000000002
SbO2,1.2083
SrCo2BPO7,1.2083
MgMn2(SbO3)4,1.2083000000000004
Mg(SnO2)2,1.2085
LaFeO3,1.2086999999999994
DyCuPbSe3,1.2086999999999994
K2SiP2,1.2087
Li2Mn2FeO6,1.2088
La3CuSnSe7,1.2088
Tm2Si9B36C,1.2089
Na4Sr2TiAs4,1.2089
Li2CrF6,1.2089
Fe3O4,1.2089999999999996
AlFe(WO4)2,1.2089999999999996
YTi2CdO6F,1.209
LiGdSe2,1.2090999999999998
YCdCu3Se4,1.2091000000000005
Tm2Mn3Sb3O14,1.2092
LiFeF5,1.2092000000000005
ZnSiAsP,1.2092999999999998
Li2MnFeO4,1.2092999999999998
Ba6Y2Co4O15,1.2092999999999998
KTeP2,1.2093000000000005
Yb2S3,1.2094
TbCu(WO4)2,1.2094999999999994
Sr2VMoO6,1.2095000000000002
CuPO3,1.2096
K2PbO3,1.2096
LaWN3,1.2096
Li9Mn2Co5O16,1.2098
NaAgO,1.2098
AgBO2,1.2098999999999998
Na6Y4Si5Sn4S7O48,1.21
Na8Mg(CoO4)2,1.21
Li2NbV3O8,1.21
SbI3Cl8,1.2101
Li4NbCr(TeO6)2,1.2101000000000002
Li3CuP2O7,1.2101999999999995
Li3V3P8O29,1.2102
ClO3,1.2103000000000002
Li7Mn2(CoO4)3,1.2104
MgTi2(Fe2O5)2,1.2105999999999997
Fe10O11,1.2106
V4CrFeO12,1.2106
MgV2(SO5)2,1.2106000000000003
NaMgNb3(PO4)6,1.2107
La5Ti2CuS5O7,1.2107
Fe2P2O7,1.2108000000000003
EuCl2,1.2108999999999996
Na7In3Se8,1.211
Mg6VSiO8,1.2110999999999992
Ba5Li2(TeO5)3,1.2111999999999998
Rb5FeO4,1.2112
Na10Ca4Ti4Si5S7O48,1.2112999999999998
Na3Mn2P2(CO7)2,1.2113
Te4As2S(OF6)2,1.2113
RhC2ClO2,1.2113999999999998
LaTl(SO5)2,1.2113999999999998
Li3V3P8O29,1.2114
Nd2MnGaO6,1.2114000000000005
Pr2Mg(MoO3)4,1.2114000000000005
CsSi,1.2115
MoP2O7,1.2115
Li6V3P8O29,1.2115
LiFeP2O7,1.2115
Na2Y3Nb5Si6(SO8)6,1.2118
CaMn2(P2O7)2,1.2118
HfMg14WO16,1.2119
Li3V5O12,1.2119
Sb2S2O,1.2119999999999995
BaLiV2Ni3(HO5)2,1.2119999999999995
Li5Mn2CoO8,1.2120000000000002
Nb2Tl4S11,1.2121
Nb(PS4)2,1.2121999999999995
MgTi2(Fe2O5)2,1.2122000000000002
LiV2(PO4)3,1.2123
Ca2NF,1.2123999999999997
Na6MgV2O8,1.2124
RbSbN2,1.2125
V2O3F,1.2125
Yb(TmSe2)2,1.2126
Li9Mn2Co5O16,1.2126
Na2Si3Ge4(SO8)3,1.2127
MgCr4O12,1.2127
Li2Mn2OF6,1.2127
Na3MoN3,1.2127000000000003
Li2VPO4F,1.2128000000000003
LuTlSe2,1.2129
Sr4MgFe2(SO3)2,1.2129
LuTlO2,1.2129
Li4CoNi5(PO4)6,1.2129999999999996
MgTiSb(PO4)3,1.213
Rb2GaAgCl6,1.213
MgMn8(SO3)8,1.2131999999999996
NaZn2Au,1.2132
Pb7(ClO4)2,1.2132
V5BO9,1.2132
NaScSiGe(SO6)2,1.2133000000000005
CsRb(MnCl3)2,1.2133000000000005
LiMn(PO3)4,1.2134
Sr4P2O,1.2134
Li3V3P8O29,1.2134999999999998
Ca4As2O,1.2134999999999998
Cd2P3Cl,1.2134999999999998
Sc2V2O7,1.2135000000000002
MgMn4(Si4O11)2,1.2136
LiV2OF5,1.2137
PrCoSbPbO6,1.2137000000000002
V3(HO2)4,1.2137000000000002
NaVAsO5,1.2138
InFeO3,1.2138
Ba6Br2N3Cl,1.2138999999999998
CaCu2F8,1.2139000000000002
Na2Sn(H2N)6,1.214
LiFe6(OF2)4,1.2140999999999995
Ta3N5,1.2140999999999995
Ba6Mn5O16,1.2141000000000002
La(SbO3)3,1.2141000000000002
KMgAs,1.2141000000000002
LiMn3(OF3)2,1.2142
MnAsH2O5,1.2142
EuCl2,1.2143999999999997
LaTiNO2,1.2144000000000004
Mg14TiCdO16,1.2146000000000008
In3Te3I,1.2146999999999997
Mn3Cd2O8,1.2148
Zn(FeO2)2,1.2148
Tl6PbI10,1.2149
MgFe3(PO4)3,1.215
LaSe2,1.215
Na2CS3,1.215
LiV3O3F7,1.215
GaCuAu2,1.2150000000000003
ErTlSe2,1.2151000000000003
PtF4,1.2151999999999998
CsGe,1.2151999999999998
Na6MgV2(S3O)2,1.2152
Rb3Pr(Cl3O)2,1.2152
CrOF,1.2153
Li9Mn2Co5O16,1.2153
CrOF,1.2153000000000005
NaZnGeP(SO6)2,1.2153999999999998
MgZnH20PtC4(NO3)4,1.2155
Li32Mn13Cr3O48,1.2155
MoPO5,1.2155000000000002
Tl3AsS3,1.2156000000000002
Li9Mn7O16,1.2156000000000002
MgTe3WO12,1.2157999999999998
Cu2S,1.2158000000000002
MgSn8(P2O9)2,1.2158000000000002
ZnGaPSe,1.2159000000000004
MnP2HO7,1.2160000000000002
LaMg30BO32,1.2160000000000002
Li9V19O48,1.2160999999999995
As2SeS2,1.2161
Ba3(H6Ir)2,1.2161
Li7Mn2(CoO4)3,1.2161
MgMnV2O6,1.2162000000000002
Li4V3Ni2Sn3O16,1.2162999999999995
NbP2Se2Cl5,1.2163
K2CoH12(C2O7)2,1.2163
CaMn2O4,1.2163
Os(C2N3)3,1.2163
ZnCd3S4,1.2163999999999997
C15Br7,1.2164
Li9Mn7O16,1.2165
SrNdCuS3,1.2165
Si2Ag2O5,1.2165
Na6Nb2Al6Si5S7O48,1.2165000000000004
NaMg6CO8,1.2165999999999997
YMgSb(PbO3)2,1.2165999999999997
ScAlCO,1.2166999999999994
CoPO4,1.2167
Na2Mg4Ti4SiS11O48,1.2167
Na3Mn(BO3)2,1.2168
Na4Ge2Te5,1.2168
Fe9O10,1.2168000000000003
FeSbO4,1.2169
Pr3CuSnSe7,1.2169
Na4Al2Si3Ge2(SO8)3,1.2169000000000003
SbPO6,1.217
ZrIN,1.2172
Y2HgO4,1.2172
KCuO,1.2173
Cs3MnZn3(PO3)12,1.2174
Zn(FeO2)2,1.2176
SrTaNO2,1.2176999999999998
SmBi2ClO4,1.2176999999999998
Sr2MnCO3F5,1.2178
Li4Nb2V3Ni3O16,1.2178999999999998
CsHf6CCl15,1.2179
Li9Mn2Co5O16,1.218
MgZn2Mo3O8,1.2181000000000002
MgV2Zn4O8,1.2181000000000002
Na8Mg(NiO4)2,1.2182
Mg30MnCoO32,1.2184
LiV3(OF3)2,1.2184
Li7V4(CO3)10,1.2185
Li2Ti3SnO8,1.2185999999999997
Li5V3P8O29,1.2186
LiMn4(PO4)3,1.2188
AsCS2NOF8,1.2189
Cs3Rh9(CO)19,1.2189
LiMnV(P2O7)2,1.2189
Pr3CuGeSe7,1.2189
Li5Mn2CoO8,1.2190999999999996
Rb3BN2,1.2192000000000005
LiCoSnO4,1.2193
Na5Co2O5,1.2193999999999998
Na5CuS4(NO6)2,1.2194000000000005
Rb2Sn2O3,1.2195999999999998
Li2Mn2P2(H4O5)3,1.2195999999999998
Te3MoWSe,1.2195999999999998
V3(H3O5)2,1.2196
MoWS4,1.2196000000000002
PrBi2IO4,1.2196999999999996
CaGe3P2(SO6)4,1.2197
NaNb3Zn(PO4)6,1.2198000000000002
LiV2(PO4)3,1.2198000000000002
Sr2YGaSn2O7,1.2198000000000002
NdBi2BrO4,1.2198999999999995
CaSnS3,1.2199
RbSb3Se5,1.2199999999999998
Mo3WS8,1.2200000000000002
CuTeSCl,1.2200000000000002
Li24Ti7Cr5O36,1.2200000000000002
Li5Fe8(BO3)8,1.2200000000000002
Li3Cr2(PS4)3,1.2201
LiV3O5F,1.2201999999999995
Sb4H8C2S7N,1.2202000000000002
MgCr2(PO5)2,1.2203
Be3Si3(SnO6)2,1.2203
VAgHgO4,1.2204
LiMn(SiO3)2,1.2204
Li9Mn2Co5O16,1.2204000000000002
Te2W3(CO)15,1.2205
Na2VBPO7,1.2205
Fe17O18,1.2205
Y2Pt2O7,1.2205
CrF5,1.2205999999999997
LiFe2(BO3)2,1.2207
V3Co(PO4)6,1.2207
K2BiBr5O2,1.2209
Na3NiO3,1.2209
Te6MoW3S2,1.221
Li2TiMn2O6,1.2211
TmMn2O5,1.2211
CIF5,1.2211
Li24Ti5Cr7O36,1.2211000000000003
Sr3LaMnCrO8,1.2211000000000007
Li2TiFeO4,1.2211999999999996
Li24Ti5Cr7O36,1.2212
Ag2HgSI2,1.2212000000000005
In4AsP3,1.2212000000000005
KHo2Cu(MoO4)4,1.2214000000000005
MgTe2,1.2214999999999998
Na2La4Nb4Si5S7O48,1.2215
NdCu(WO4)2,1.2215999999999996
Li2Ti7O15,1.2216
InAg3(PO4)2,1.2216999999999998
KTiPS5,1.2217
MgIn2O4,1.2218
TiBi8W(ClO8)2,1.2218
CaY4(BiO3)4,1.2218999999999998
SmTlSe2,1.2218999999999998
In2Ag3(PO4)3,1.2219000000000002
Rb3Sb2Au3,1.222
Na6Mg(CoO3)2,1.2220999999999995
Ge4Se9,1.2221
Rb2Sb4S7,1.2221000000000002
Li9Mn2Co5O16,1.2222
Na14Zn6Si5Sn2S7O48,1.2222
MgHg8(NO4)4,1.2222
KSi,1.2223000000000002
Mg30CrBO32,1.2223000000000006