formula,band_gap (MP)
MnH2SeO5,1.9027
Cd3Fe2(GeO4)3,1.9028000000000005
Li2BiBO4,1.9029
Rb2LiMn3F12,1.903
Li3CuS2,1.9031
Al2Ag2Bi2S3Cl8,1.9032
Na6Nb4Zn2Si3(PO6)6,1.9032
AsWO5,1.9032
U2H12C2S3(NO8)2,1.9032
Sr5ZrTi4O15,1.9033
YCu3PbSe4,1.9033
Mg2SnO4,1.9033999999999995
LiCrPO4,1.9035
La3TaCo2O9,1.9036
C2SeNClO2,1.9036
H3PbS2N3,1.9036
LiV4P7O24,1.9036
Mg16Si8HO32,1.9037
Cr(PO3)2,1.9037999999999995
Li2VFe(P2O7)2,1.9038
UO3,1.9038
NaNb13O33,1.9038
LaCrO3,1.9038999999999997
NdCrO3,1.904
Ba7Ga5AgSe15,1.904
Rb3AlI6,1.9042
BaSrTbBiO6,1.9042
ErMoBrO4,1.9042
NaIn2Ga2PS5O24,1.9042
BaSrLaBiO6,1.9044
Sm4Au2O9,1.9045
CaTe2O7,1.9045
CaP4(Br3O)4,1.9045
SbHC3(NCl3)3,1.9047
Fe3H10S2NO14,1.9047
SiO2,1.9047
YbMgNiH4,1.9048
Li3Cr3(PO4)4,1.9048
Li3Fe(PO4)2,1.905
K2TlAsCl6,1.905
Mn(BH4)2,1.905
NaMg6FeO8,1.905
RbMg30CoO32,1.9051
LiFe2OF5,1.9051
VPO5,1.9054
Na3VS3O,1.9054
NbBi4ClO8,1.9054
In2H5(SeO4)3,1.9055
Sr2MgZn2Sn2(PO4)4,1.9056
Cs2TlRhF6,1.9056
VO2F,1.9056
Li3Fe(PO4)2,1.9057
UCdO4,1.9057
Mn3Nb2ZnO9,1.9058
Li15Fe15SiO32,1.9058
BaPd(IO3)4,1.9058
LiUBO5,1.9059
Na15Mg7Ta5Si9(SO8)9,1.906
La5Sm3Cr6(FeO12)2,1.9061000000000003
CsPS3,1.9062
V3OF11,1.9062
MnH8(N2Cl)2,1.9063
Fe2AsO4F,1.9064
K3Na2InO4,1.9065
As2C4S2O,1.9065
MgCr2O4,1.9065000000000003
Rb2U3(IO5)4,1.9066
FeBPbO4,1.9067000000000005
K2Pd(NO3)4,1.9068
Rb2Ag2GeS4,1.907
LiNbFeO4,1.907
Na2Cr4O13,1.9072
RbH2N,1.9074
Li2FeBO4,1.9074
KNb5Pb2O15,1.9075
Mn2Fe3Sb(PO4)6,1.9076
LuSeF,1.9077
LiFeP2O7,1.9077
Li3FeO3,1.9077
LiTa3O8,1.9077
PbF3,1.9078
KNa9In2O8,1.9078
Na5IO6,1.9079
KH2I3O,1.9079
Rb2Na3InO4,1.9079
Na3Co2SbO6,1.9080000000000004
KBaLaSeO6,1.9081
ZnBi2(PO5)2,1.9081
PrMg(WO3)2,1.9081
MgCoF5,1.9081
Li2FeBO4,1.9082
U2V2O11,1.9082
Cs2NaRhF6,1.9082000000000003
Li3Nb3TeO12,1.9083
LiFe2C2O7,1.9084
CdHg4C6S6(Br2N3)2,1.9085
BaCaDyBiO6,1.9086
FeHO2,1.9086
Ba2PrBiO6,1.9086000000000003
K2PH4Se3O2,1.9087
BaTeS3,1.9088000000000005
Nb3Co(PO4)6,1.9089
TeMoS,1.9089
Zn2Hg2H2S2O11,1.9089
Bi2WO6,1.909
HfMg14BO15,1.9091
K2Na(SbO3)3,1.9091
Au2S,1.9091
LiFeSiO4,1.9093
AuCl,1.9094
H8PtCN8,1.9094
Na3CaTi3P5SO24,1.9094
BaLiCeSbO6,1.9094
BaLa4TiCr4O15,1.9094000000000009
SrFeP(O2F)2,1.9095
Ba(CO2)2,1.9095
Ca12Al14O33,1.9095000000000004
KSrCeSbO6,1.9095000000000004
Sr3(BN2)2,1.9096
Th4Ta18O53,1.9096999999999995
TeS4(NCl)4,1.9097
Mg30MnCO32,1.9097
MgTiO3,1.9098
Li4MnCr3(PO4)4,1.9098
Rb2MoO8,1.9098
TiNi3Sn2(PO4)6,1.9098
MgV2(PO5)2,1.9099
Zn3Fe2(GeO4)3,1.91
MgFe4(OF)4,1.9102
Na4Zn3S5,1.9102
H2C3,1.9102
Mg6AlCdO8,1.9102999999999997
CoH8(ClO2)2,1.9103
NaFe(SeO4)2,1.9104
LiV2F9,1.9105
Mg4CN4,1.9105
MgCoF5,1.9106
Ag2Pb8Cl4O7,1.9106
BaMg2H8Ru,1.9107
ZnNi4O5,1.9107000000000005
Sn2OF5,1.9108
CeZr2O6,1.9108
CeZrO4,1.9109
Fe4OF7,1.9109
Li2V(OF)2,1.9109000000000005
Li2FePCO7,1.911
Li3Fe(BO3)2,1.911
Li3Al2VO6,1.911
K2U(WO5)2,1.911
U(HO2)2,1.9110000000000005
Li2VF6,1.9112
GaHO2,1.9112000000000005
Mn(H15N8)2,1.9113
Cs3Zr2P5S18,1.9114
Sm2MgMo2(ClO4)2,1.9115
FeH4S2NO8,1.9116
V2CoO6,1.9116
MgV2CoO6,1.9116
Te(HO)6,1.9116
Li3Fe2(PO4)3,1.9116
CaLa2Co2Sb2(PbO6)2,1.9117000000000008
Ti2Co(PO5)2,1.9118
MgTl6(SbS4)2,1.9118
Fe2TeWC10SeO10,1.912
Li3NiOF3,1.9121
La4As2(S2O)3,1.9121999999999997
KRbMg30O31,1.9122
Cs2CrH4F10,1.9123
Li2Mn2C2O7,1.9123
EuB4O7,1.912399999999999
ZnFePO5,1.9124
La2NiO4,1.9125
Li2V(OF)2,1.9125
Tb5Mg(MoO6)2,1.9126
CaP4WO12,1.9126
Tl2Ge2S5,1.9126
Li6Fe3Cu(PO4)6,1.9126
SbPbClO2,1.9127
OsO3F2,1.913
Li2WS4,1.9131
Na6Ta2In6Si5S7O48,1.9131
Ca(WO2)2,1.9131000000000005
FeClO,1.9133
HgSbOF8,1.9133
Hg3(TeCl)2,1.9134
NaFeBO3,1.9134
Na2Nb5In3(PO4)12,1.9135
V2NiP2H6O13,1.9135
RbNaMg30O31,1.9137
LaCrO3,1.913800000000001
LiVF5,1.9139
Na6Ti3ZnSi4(SO12)2,1.9139
Mg2FeH6,1.914
Na2LiBiI6,1.9141
NaSr3NdTi5O15,1.9141
Ti3Sb2(PO4)6,1.9142
Li5Fe3Co2(PO4)6,1.9142
Na3Ti3ZnP5SO24,1.9142
MgAl6O10,1.9142
NaInO2,1.9142
Li2FeP2HO8,1.9142
Nb2Zn2SnO8,1.9143
MgCuBi(WO4)2,1.9143
CdGe(BiO3)2,1.9144999999999996
Ba2InClO3,1.9145
Cs3K5Mo8(P2O11)4,1.9146
Li4Fe2O5,1.9146
K2PbO2,1.9147
Na2GeH16Se3O8,1.9147
TaFeO4,1.9148
Ca3(GaN2)2,1.9148000000000005
Sc(NF2)3,1.9149
RbNaMg14O15,1.9149000000000005
Li4Mn3Cr2Sn(PO4)6,1.915
Ge3N4,1.9151
Hg(TeO3)2,1.9152
RbMgCu2H3(SO5)2,1.9152
LiV(PO3)4,1.9153
MoPNCl6O,1.9153
Sr2NiTeO6,1.9153
MgPb2(WO4)2,1.9154
LiVSiO4,1.9155
NiH10C4(SN4)2,1.9155
K2TlSbCl6,1.9155
Lu2MgSe4,1.9156
Na3CaSn(PO4)3,1.9157
BaTa2Bi2O9,1.9158
Sr4Nb3PO14,1.9159999999999997
S2N2O,1.916
CdBiS2Cl,1.9160000000000004
TlGeI3,1.9161
K2RbAlI6,1.9161
BaSrPrWO6,1.9162000000000003
PrHSe,1.9162000000000003
YSn(WO4)2,1.9163
BaNaPrSeO6,1.9163000000000008
CsI3,1.9164
MnB2H17N3,1.9165
Li2NiSnO4,1.9166
Ca10La6Mg3Ti13O48,1.9166
InRe2(CO)9,1.9166
AgPO3,1.9166
NaLi2RhF6,1.9166
MnB4H24(C2N)2,1.9167
GdNb5Ag2O15,1.9167
CaV(Si2O5)2,1.9167000000000003
WCl6,1.9169
Nb3Ga(PO4)6,1.917
MnTlF4,1.917
Li3MnAl2O6,1.9171
CaFeSeO,1.9172
Li2FeBO4,1.9172
BaPrInWO6,1.9172
ZnH12(NO3)2,1.9173
NaFe(WO4)2,1.9174
CaV4(AgO6)2,1.9174
Hf2N2O,1.9174000000000009
Mn2NbFe3(PO4)6,1.9175
Li3U7(PO7)5,1.9176
AgMo4H22C8(NO5)3,1.9177
BaSrLaBiO6,1.9177
LiFe2O2F3,1.9177
Cs2NaTlCl6,1.9178
La2CrO6,1.918
Ca3PbSe4,1.9182
MgV2Zn2(SiO5)2,1.9182
IO3,1.9182
Na2Sc3Nb5(PO4)12,1.9182
MnFe2(PO4)3,1.9183
Li5Mn2Fe3(PO4)6,1.9183
K4I2O9,1.9183
Ba4Tb2Cd3S10,1.9184
KP2H4PtO9,1.9184
HgAs4(S2I)2,1.9184
MgCr2O4,1.9184000000000003
Na3V2(PO4)3,1.9185
CaH12(IO7)2,1.9185
LiFeP2O7,1.9186
NbAl2(SeCl4)2,1.9186
NaSr2NdTi4O12,1.9187000000000003
Zr2N2O,1.9188
NbFe5(PO4)6,1.9188
SbPH2F10,1.9189
Li2SiSnS4,1.9189000000000005
Na6Nb4Zn2Si6(SO12)3,1.919
Rb4U3(AsO8)2,1.9192
Tl2(IO3)3,1.9192000000000005
Na2ZnSnP2SO12,1.9193
RbBiAs6H24C8(S6N)2,1.9193
CaLaTaCrO6,1.9194000000000004
PI2,1.9195
NaCaCeBiO6,1.9195
SbH3CSCl6O,1.9195
CuMo3Cl7,1.9195
Li3Fe3(PO4)4,1.9197
Pt(SCl4)2,1.9198
BaMn2V2O8,1.9198
Rb2CaNd2(WO4)4,1.9198000000000004
Li6V2B4SO16,1.92
La2ZrNiO6,1.9201000000000008
LiYS2,1.9203999999999997
HfBrN,1.9205
K3Nb3(BO6)2,1.9206
CrOF,1.9206
Li2S,1.9207
Si4Te2H44Pd(C8Cl)2,1.9208
Li2VCrP2(HO5)2,1.9209
ZnBiAsO5,1.9212
Dy2MgSe4,1.9213
MgV4(NiO6)2,1.9213
LiSmS2,1.9214
Sr3CaTi4O12,1.9214
Li2AlVO4,1.9215000000000004
K2MoS3O,1.9216
Zr4Ti(PbO3)5,1.9216000000000009
Sm9In(SiS7)3,1.9216999999999995
Li4Cr5(P3O11)2,1.9217
KNaMg30O31,1.9217999999999995
SrUO4,1.9218
Na4LaTiSi2PO12,1.9218999999999995
Ba2LaWO6,1.9219
BaNdCrSnO6,1.922
LiLa2Ti2CrO9,1.9220999999999997
HoCu(MoO4)2,1.9221
KLaTbBiO6,1.9221
HRuRh(CO)6,1.9221
LiVP2O7,1.9221
CaSO6,1.9221
Na2Al2Si3(HO3)4,1.9221000000000004
NdMgCu(WO4)2,1.9222
La10S14O,1.9222
Rb2U2WO10,1.9222
VPO5,1.9224
Na3InSi2GeSO12,1.9225
MgCr(SiO3)2,1.9225000000000003
Sm6Th4O17,1.9227
Na2Mn3Cl8,1.9228
TePb3(BrO2)2,1.923
Na2HoNb5O15,1.923
V2FeO6,1.923
SbOF3,1.9231
TaCu3S4,1.9231000000000005
SrCa3(PbO4)2,1.9231000000000005
Li3Fe2(SiO4)2,1.9232
Na2Nb3GaSi4(SO12)2,1.9232
Ba(NdS2)2,1.9232
Lu6UO12,1.9232
KSrCeSbO6,1.9233
Ba2La2MgTi3O12,1.9234
KV4P7O24,1.9235
Rb2Nd2Mg(WO4)4,1.9235
NiRu5C17O16,1.9237
SbCl(OF3)2,1.9238
Li2V(PO3)5,1.9238
Fe3C9S2O9,1.9239
RbMgCoF6,1.9239
Tl2CS3,1.9241
Na2Li2NiP6(H4O5)6,1.9243
KFe4(SiO4)3,1.9244
BaNd2Ti3O10,1.9244
Ba7Fe7F34,1.9244
Na3MgNb5Si6(SO12)3,1.9244000000000003
Na7La7Th2Ti18O54,1.9245
P8W3O29,1.9246
Li3VF7,1.9246000000000003
TmMoBrO4,1.9246000000000003
Zn3InAgS5,1.9247
CaB5H4O9,1.9247
K2LiBiI6,1.9247
Na14Nb2Ga6Si9(SO16)3,1.9247
Li2AlVO4,1.9248
AlW3O8,1.9248
Rb2Cr2As2O9,1.9248
FeWClO4,1.9249
Li2V3Si3O10,1.925
Ce8Nd2O19,1.9251
HoMg(WO3)2,1.9251999999999996
Li5Fe(CO3)4,1.9253
CoH14SeN5O7,1.9254
BPb7Br3O7,1.9254
Ca2MoWO6,1.9254000000000009
B2(CN2)3,1.9254999999999995
Rb2LiNd2(WO4)4,1.9256
HoBeNF6,1.9256
K2Zn6O7,1.9257
Na6Ca3GeP4(SO12)2,1.9258
NaErSe2,1.9258
AlPO4,1.9258
LiVP2O7,1.9258
Na2LaNbSi2SO12,1.9259
P,1.9259
LiCrPO4,1.9259
Fe7(SiO4)4,1.926
MoF5,1.926
La2MgMoO6,1.9261
Na8Ca2Ga2Si3(SO8)3,1.9261
Mg30VZnO32,1.9261
Li8Te2O9,1.9261000000000004
CaV2Zn2(SiO5)2,1.9263
Hf2N2O,1.9263000000000003
Na14Sc6Nb2Si9(SO16)3,1.9264
TaTiAlO6,1.9264000000000008
LiMn2F5,1.9265
Sb2PbO6,1.9265
Sb9Se4F39,1.9267
La2Mg(CoO3)2,1.9267000000000003
KLaDyBiO6,1.9268
Na2ZrS3,1.9268
Ag5CF4,1.9268
TeMoWSe2S,1.9268000000000003
Ru(CO)4,1.927
Hf2N2O,1.9270000000000005
VSb(PO4)2,1.9271
KNaMg14O15,1.9271000000000005
RbUC3O8,1.9272
Li3V2(PO4)3,1.9273
NaMn2V3(PbO6)2,1.9277
Fe4OF7,1.9278
Hg2Mo2O7,1.9279
Cs2PrAuCl6,1.9281
K2HgBr2(NO6)2,1.9283
Fe2MoC10(SeO5)2,1.9283
La9In(SiS7)3,1.9284
MgFe2P2(HO)18,1.9284
LiFePHO5,1.9285
Na7CaNb3(SiO4)6,1.9285
LiCoF4,1.9285
Os2Xe(O3F5)2,1.9286
Nb2PbO6,1.9286
RbMg6CO8,1.9287
Cs2CeO3,1.9287
TmCrO3,1.9289
K2BaNi(NO2)6,1.929
Ba3WN4,1.9290000000000005
H12RuSN4(ClO)2,1.9291
BaGa12O19,1.9291
Na4TeSe,1.9291
Cs2CeO3,1.9291000000000005
Te3As2S(OF6)2,1.9292
Mg2BiWO6,1.9293
NaLi2La3Ti6O18,1.9293
CaFeAs2O7,1.9294
Li4MnV3(P2O7)4,1.9294
Li2Fe2B2O7,1.9294
MnSiO3,1.9295
Dy2MgS4,1.9295
NaSbO3,1.9296
Na2Y3Ta5Si6(SO8)6,1.9296
KVF4,1.9296
K5V9H20PtO37,1.9297
SIO3F,1.9298
Sb4I2O5,1.9298
CaCoAsHO5,1.9298
K2S5,1.9299
LaGaS2O,1.9299
Na3V2(PO4)3,1.9299
K3P11,1.93
TaIn3SiS5O24,1.93
LiVP3HO10,1.9301
V4CuNiO12,1.9302
GaC2NCl4,1.9303
Mg(MoO2)2,1.9303
Ba2MgFeWO6,1.9304
Na3ScSi3Ge3(SO8)3,1.9304
NaUBO5,1.9304
TbFe3(BO3)4,1.9305
LaPb6BrO7,1.9305
Na9Nb5Zn(SiO4)9,1.9305
Na3Mg3TiPS5O24,1.9305
Na10Zn7Sn7H24(S13O6)2,1.9307
LiFePO4F,1.9307
CaU2Si2H12O17,1.9307
Li3V3(PO4)4,1.9308
ZnSb4H18S7N6,1.9308
Li2Cr3SbO8,1.9309000000000005
CrHgO4,1.931
Li4VCr3O8,1.9311
Na2Nb6Ga2Si7S5O48,1.9311
Li3MnB6O13,1.9312
SbH5(Cl3O)2,1.9313
KBaLaSeO6,1.9314
Mg(SiB6)2,1.9315000000000009
BaCaSnWO6,1.9315999999999995
TiNb2O7,1.9316
RbAl6H20N5F24,1.9316
Ca5Sn3S11,1.9316000000000004
TePHO5,1.9317
Li2Mo(PO4)2,1.9317
Ba2Na2O3,1.9318
Rb2LiPr2(WO4)4,1.9318
ZnFe3P3O13,1.9319
Mg30VZnO32,1.9319999999999995
AlFeB2(PbO4)2,1.932
Cs2LiBiI6,1.9323
Li5V2P5O18,1.9323
MgV2(CoO4)2,1.9323
MnTlCl3,1.9323
Na8Mg(FeO4)2,1.9324
MgTi2Pb4WO12,1.9324000000000003
LiVGeO5,1.9325
Rb3P11,1.9328
TiNb2O7,1.9328
MgB9N,1.9329
La3AgSnS7,1.9329
LiVSiO4,1.9330000000000005
Zn(GaS2)2,1.9330000000000005
Na5Y3Ti(PO4)6,1.9330000000000005
Y5(GeN3)3,1.9331
SrLaI5,1.9331
Na5VO5,1.9331
Li3Al2VO6,1.9332000000000005
Nd2MgS4,1.9332000000000005
Rb2LiBiI6,1.9334
CuP4S3Br,1.9335
KLaMg6O8,1.9335000000000004
Mg11Mn2O13,1.9335000000000004
Mg2Sn3O8,1.9335000000000004
SiC,1.9337
Ti4Ag2O9,1.9337
TaNO,1.9338
MgTe4Pb6(BrO3)4,1.9338
Cs2NaAlH6,1.9338
Li3V2(PO4)3,1.9338
Mg3Fe2O5,1.934
AgPb2Br5,1.9341
CsCrH8(NO4)2,1.9342
Cs5YO4,1.9342
Rb2Li14Pb3O14,1.9342
LiVSiO4,1.9342
V3OF11,1.9343
Zn3Sn3(AsO4)4,1.9343
La3Fe5O12,1.9344
CsAu(IO3)4,1.9345
Na2InGe(PO4)3,1.9345
Li4Mn3Co(PO4)4,1.9345000000000003
Li2HfN2,1.9346
KCuC2,1.9346
LiDyS2,1.9347
Li4VF8,1.9347
Rb3DyO3,1.9348
Cd(AsO3)2,1.9349
LiMnBO3,1.9349
Ag3H13SeN4O5,1.9349
Na3Mg2Nb10Si3(P5O24)3,1.935
Na6Ta20Zn4Si21(S5O48)3,1.935
Li2Ti2CoO6,1.935
CaCo(GeO3)2,1.935
Li3Sn2(PO4)3,1.9352
Co2As2O5,1.9352
VPO5,1.9352
K2Cr4Co(HO4)4,1.9353
K2PtN4(ClO4)2,1.9353
TbCu(MoO4)2,1.9354
Ba(PrS2)2,1.9354
CaVFe(P2O7)2,1.9354
MgSb2PbO6,1.9354999999999996
Na6Mg7Ti(SO4)12,1.9357
LiV(SiO3)2,1.9357999999999995
MgV2(OF3)2,1.9359
Na2Nb3InSi4(SO12)2,1.9359
K4Ta3NbO12,1.936
Li4Cr3CoO8,1.936
BaNaSr3(SbO4)3,1.9361
Li3Fe4(OF3)3,1.9361
Li5FeO3F,1.9363
RbAuCl4,1.9363
CaCr2P2O9,1.9363000000000008
Sr2BiSbO6,1.9364
Sr4Ti5(Si2O11)2,1.9364000000000003
Li2Fe3O4,1.9365
Mg(SbO2)2,1.9365
LiVCoO4,1.9367
ZrHg3(SeBr3)2,1.9368
Na6Ca2Nb4Si6(SO12)3,1.9368
NbFeO4,1.9368000000000003
Ca3Sc2N4,1.9368000000000003
MgV2(OF3)2,1.937
V3Cd5P6O25,1.9370000000000005
HgC8(NCl2)2,1.9371
Cs2LiTm2(WO4)4,1.9371
Na2LiVPO6,1.9371
CoPtF6,1.9373
LiVP2O7,1.9374
UV2PbO9,1.9374
LiLa5Ti8O24,1.9374
Li2V3P9O28,1.9376
RbCdAuS2,1.9376
BaGaB4H3O10,1.9376
NiP6(WO8)3,1.9379
Re(TeBr2)2,1.9379
La2Si2PbSe8,1.9379000000000004
H8PtO6,1.938
Co3B7IO13,1.938
Li2NiO2,1.938
CS3N4,1.9381
RbLi2(H2N)3,1.9381
CsInO2,1.9381
MgP4H24(NO)8,1.9381
Li4V2Si(PO6)2,1.9381
KSnI3,1.9381
Te4Mo3W(SeS)2,1.9382
Ag2WO4,1.9382
Rb2HgF4,1.9382
ZnSn(GeO3)2,1.9382
Cs2NaMn(CN)6,1.9383
KMg14CrO16,1.9385
Cs2SiSe4,1.9385000000000003
Mg30CrSnO32,1.9386
KSrSmSeO6,1.9386000000000003
Y5(SiN3)3,1.9388
Li7VN4,1.9388
Cs2ScCuCl6,1.9388
C3IN,1.9388
Ba6Gd(ReO6)3,1.9389
CeZr7O16,1.9389
Cr3(PO4)2,1.9389
LiLa2VO6,1.9389000000000003
Mg6AlNiO8,1.9389000000000003
SrSmZrFeO6,1.9391
LiMnVO4,1.9391
Li4Ti3Co2Sn3O16,1.9391
K2Pd(NO2)4,1.9391
TlBr3,1.9392
Sr6Mg(Te4O11)2,1.9393
Rb2TlRhF6,1.9393
LiMoAsO6,1.9394
SbH4NCl6,1.9394
Na4LaNb3Si5SO24,1.9395
MgCO6,1.9396
Si10BiTe2H73C25,1.9396
NdFe3(BO3)4,1.9396
Hg3(SCl)2,1.9398
Sr2LiCoWO6,1.9398
Li2FeO2F,1.9398
Sr2NCl,1.9398000000000004
CoH32C8S4(NO5)2,1.94
CdSeO4,1.94
Pt(C4N3)2,1.94
Rb3Er7S12,1.94
Na5LaO4,1.94
Ca6V3Fe7O24,1.9401
Na10Ta4Zn4Si7S5O48,1.9401
Li8Co(O2F)2,1.9403
Na2NiH8(SO6)2,1.9403
KMgAg2SbS4,1.9403
MgSn3(P2O7)2,1.9404
Na2AgAsF6,1.9406
Fe5(SiO4)3,1.9406000000000003
Mg3V6(FeO6)4,1.9407
Li4VCr3O8,1.9407
Li6Mn(OF)3,1.9407
Li2ZnSn3O8,1.9407
Zn3Cr2(GeO4)3,1.9408
S2Xe(O3F)2,1.9408
TaAgN2,1.9408
La2Ti3(AgO5)2,1.9408000000000003
Tl2TeO3,1.9408000000000003
Li2AgF3,1.9409
Li6NiOF6,1.941
MgV2(OF3)2,1.941
Rb2PrCuBr6,1.9411
LiFe2(BO3)2,1.9411
YNb3(PO4)6,1.9411
SiC,1.9411999999999985
NaGa3Se5,1.9413
TlP2HO7,1.9415
LiVP2O7,1.9415
KVHSe2O7,1.9415
Hf2N2O,1.9416
LiVF5,1.9417
La20S29O,1.9418
KNb2PO8,1.9419
RbHgC3(SN)3,1.9419
ScPS4,1.942
Sr25Ti39O103,1.9422
Li2FeO2F,1.9422
Er2MgS4,1.9422999999999997
Na2Mo(H2O3)4,1.9423
Na3Sr4La3Ti10O30,1.9424
SiC,1.942400000000001
ScNbSi(SO6)2,1.9425
Sr3ZrTi2O9,1.9426
LiCuSi2O5,1.9426
H8PtO6,1.9426
Li6CrSn3(PO4)6,1.9426
MgFe2Si2SbO9,1.9427000000000003
Na8Mg(FeO4)2,1.9428
MgV2(FeO4)2,1.9428
AgMoPO6,1.9428
MgFe2(OF)2,1.9428
Zn2TeWO6,1.9428
K2PtC4(BrN2)2,1.9429
LiMn(PO3)3,1.9429
Na2Ca5Ti3(SO4)12,1.9429
MgFe3P3O13,1.943
Cd(PO5)2,1.943
H7AuN4O15,1.9431
H3PbCI3N2,1.9431
MnBiAsO5,1.9432
Mg6CuSiO8,1.9433000000000007
ThNb4O12,1.9434
SbCNCl5,1.9435
TaP4(SCl)5,1.9435
K2Cu(PS3)3,1.9435
YTa(WO4)2,1.9435
K2WS4,1.9435
Sr2SmBiO6,1.9436
CaTi3P2(SO6)4,1.9436
TaTl2AgS4,1.9437
Rb2MnV2(ClO3)2,1.9437
BaHo2PdO5,1.9437999999999995
SbP2O7,1.9438
CsLiMg30O31,1.9439
Li4Ti15O32,1.9439
TaNb3V4O20,1.944
LuAu2F9,1.9441
Na7MgNb3(SiO4)6,1.9441
AlNiF5,1.9441
CsMg30WO32,1.9441000000000008
K2Ce(Si2O5)3,1.9442
Na4Y3NbSi3(SO8)3,1.9442000000000004
Na5MgTi3SiP5O24,1.9443
Li2VSi4O11,1.9445
Hg3TeBr4,1.9445
Li4V2Si(PO6)2,1.9445999999999997
Li3Fe9O5F11,1.9447
Na42Mg20Ta4Si15(S7O48)3,1.9447
Li3Fe3(PO4)4,1.9448000000000003
SbSeCl7O,1.945
MgFe3Ni2Sb(PO4)6,1.9450000000000005
Li2Fe4O3F8,1.9451
Al3Te3I,1.9452000000000005
Na9Sr2La9Ti20O60,1.9453
HgCN2,1.9453
As3H12C4S5N,1.9453
LiEr2Tl2(WO4)4,1.9454
Sr2TmBiO6,1.9455
Sr2LaBiO6,1.9455
LiVPHO5,1.9456
Ti2P2O9,1.9456
NbBr3O,1.9457
CaTe4H4(O3F4)2,1.9457
BaCaTbBiO6,1.9458
NaH2N,1.9459
Ca3SnS5,1.9459
Rb2PtCl6,1.9459
SrLaI5,1.9459
CsUVO6,1.946
Mg3Si4(SbO7)2,1.9461000000000004
Mg6AlCrO8,1.9461000000000013
LiNbCoO4,1.9463000000000004
AgNO3,1.9464
Re2H4O9,1.9464
Bi3C3N7,1.9464
Ti2Fe(PO5)2,1.9465
TlH12C4Br4N5,1.9466
K2SnHCl4,1.9466
Na14Mg2Si9Sn6(SO16)3,1.9466999999999997
Sr5ZrTi4O15,1.9467
Rb2Pr2Mg(WO4)4,1.9467
TiMnH12(OF)6,1.9468
Rb2Hf2O5,1.9468
CaU(SeO4)2,1.9468
Cs2ScInI6,1.9468
DyWO4,1.9468
La6Cd(SiS7)2,1.9468999999999996
Cs6Dy21S34Cl,1.9469
Te2H18N4O11,1.947
Ca2TiMnO6,1.9470000000000005
NbGa(SnO3)2,1.9471
LiV2OF7,1.9472
Fe4OF7,1.9473
BaPr2Ti3O10,1.9473
VZnNiP2O9,1.9474
V6Zn3(FeO6)4,1.9476
CaPrZrFeO6,1.9476000000000004
Na5Y3Si3Sn(SO8)3,1.9477
BaSrYBiO6,1.9478
UTiNb2O10,1.9478
Sr2P7Cl,1.948
LiVP2(HO4)2,1.948
BaSrLaBiO6,1.9480000000000004
K3Hg3S2Br5O6,1.9481
Ti5ZnBi2(Pb2O9)2,1.9482
K3NaS2,1.9482
LiSmS2,1.9482
Gd3NCl6,1.9483
CoAs2S6(NF3)6,1.9483
Na10NbAl7Si6(SO8)6,1.9484
MoH4O5,1.9485
Rb2NaMn(CN)6,1.9485
MnO3F,1.9485
NaB9Se8,1.9485
In(HO)3,1.9486
K3Cr(CN)6,1.9487
Li5NCl2,1.9488
Na5Mg2Ti2P5SO24,1.9488
VAgO3,1.9488
VFeH2O5,1.9489
BaCa2In6O12,1.9489
Mg2MoWO6,1.9489
Cr(PO3)3,1.949
Na2NbAl3P4(SO12)2,1.9490000000000005
CrAg(SO4)2,1.9491
KNaTe,1.9491
YWF5,1.9491
Y2MgS4,1.9492
Ca(NO4)2,1.9492
Tb2MgS4,1.9492000000000005
GaHO2,1.9492000000000005
PrI3,1.9493
Ba2Mo2F11,1.9493
Li3V5(PO4)6,1.9493000000000005
V3(H3O5)2,1.9494
MgAsWO5,1.9494
LiFe4(BO3)4,1.9494
Er2MgTl2(WO4)4,1.9495
NbO2F,1.9496
BaSrNbBiO6,1.9496
AuCl,1.9497
MgScNi2SbO6,1.9499999999999995
Sr2La2MgTi3O12,1.95
USO6,1.9501
Gd3NbO7,1.9502
Ba2V3HO9,1.9502
Ba3GdInS6,1.9502
YSnO3,1.9502000000000008
YbWClO4,1.9503
BaCaLaBiO6,1.9504
Ba2CaV2(P2O9)2,1.9504
C2IO,1.9505
Li6V3Cr(PO4)6,1.9505000000000003
LiFe(GeO3)2,1.9506
Mg14VZnO16,1.9507999999999992
LaFeO3,1.9509
Ba2MgV2(Si2O7)2,1.9509
Tm10Ti6O27,1.9511
LiMnH2OF4,1.9511
SrTi2O5,1.9511
K2Cr3O10,1.9511
Sr2ErBiO6,1.9513000000000005
Ce4ZrO10,1.9513000000000007
Li3BiS3,1.9514
CdC3NCl3,1.9515
KUI3O11,1.9515
Li3FeOF4,1.9515
Li3CrPCO7,1.9516
MgCr3(FeO4)2,1.9517
VAgOF4,1.9517
VF4,1.952
MgFe4(OF)4,1.952
NaMg14CoO16,1.9524
PbWO4,1.9524
Cs2Cr(NO3)5,1.9524
CsMnF4,1.9524
Na4W(NO)2,1.9524
K6Ba2CaU6O24,1.9524000000000004
Sm2MgS4,1.9525
UOF4,1.9526
V2Bi4O11,1.9526000000000003
ZnCrAsO5,1.9527
Mg30ZnSiO32,1.9527
Li6VO5F,1.9528
Na3MgMo(OF)3,1.9528
BaSm2Ti3O10,1.9530000000000003
TlSn2F5,1.9531
KICl4,1.9531
Na2CoGeO4,1.9531
V(PO3)3,1.9533
Na2La2Nb6Si7S5O48,1.9534
YH16C4N9O16,1.9535
BaSrBiSbO6,1.9536999999999995
Sb2Te3WC4(OF3)4,1.9537
Ca(CoO2)2,1.954
Li2VSiO5,1.9540999999999995
NaBrO2,1.9541
Ta3O7F,1.9542
ScMn2SbO6,1.9542
RbCuC2,1.9542
MnAl(WO4)2,1.9543
Rb2TlAsCl6,1.9544
NaV3(SO7)2,1.9544
Tl4SiS4,1.9544999999999997
WSCl4,1.9545
Cs2U(Br2O)2,1.9545
Bi(W2Cl5)3,1.9545000000000003
MgPH6NO5,1.9546
TiAsH18C6N3Cl4,1.9546
Mg30GaBO32,1.9546
LiFe(SO4)2,1.9547
Ba2NbN3,1.9548
LiVSi4(HO6)2,1.9548
Rb2TaCuSe4,1.9549
Mg3V4(PO4)6,1.9549000000000003
Fe2WC10(SeO5)2,1.955
VOF3,1.955
CsPbBr3,1.955
Ba2SnS4,1.9550999999999996
Ca2CrSbO6,1.9551
Rb2TlSbCl6,1.9551
Fe3H9S2O15,1.9553
Li2VGa3O8,1.9553
BaLiAl3P2(HO7)2,1.9554
Na2LaNb3Si4(SO12)2,1.9555
Y6UO12,1.9558
CdH2(BrO3)2,1.9558
K2FeH4(SO5)2,1.9558
AsSe3(ClF2)3,1.9559
LiV(Si3O7)2,1.9559
BaTbNbSnO6,1.9559
Na6Nb2Zn4Si3(SO6)6,1.956
ErInO3,1.9560000000000004
Pm2MgS4,1.9562000000000004
Bi2W2O9,1.9562000000000004
MnP(HO)7,1.9563
K3AgO2,1.7332
Na4NbZnSi2PO12,1.7332999999999998
RbTa(CuSe2)2,1.7333
AuS5N5Cl4,1.7333999999999998
NaMnAsO4,1.7334999999999998
Li4V3O8,1.7335
V2CdP2O9,1.7336
SbN2F5,1.7336999999999998
TaNb(Cu3S4)2,1.7338
Li2Fe3O3F5,1.7338
Ca2P4PdO8,1.7339
InTeI7,1.734
Mn(HO)2,1.734
Sr2LaBiO6,1.7340999999999998
Zn3Ge3(BiO6)2,1.7341000000000002
Rb4PbO4,1.7342000000000002
CoH9C3N7O2,1.7343
Rb2MnSO4F3,1.7343000000000002
Li2VFeP2(O4F)2,1.7344000000000002
LiNb13O33,1.7345
Mo(PO4)2,1.7345
BaNb2(FeO3)4,1.7345000000000002
Na21Nb4Zn8Si3(P5O24)3,1.7345000000000002
Li2VO2F,1.7347
Ce2Y2O7,1.7347
TaP4(S2Cl)5,1.7349
Ca3CdO4,1.7349
Ba2DyBiO6,1.735
Ca3Mn2(WO6)2,1.7350000000000003
CaSnS3,1.7351
LiVFeP2(O4F)2,1.7351
Ca(FeO2)2,1.7351
Na7Ca3GeP5SO24,1.7352
RbMnF4,1.7352
Li2VO2F,1.7354000000000005
Zn3Si3(SbO6)2,1.7355
Co2H36Pt3(NCl)12,1.7355
Ca(WO2)2,1.7355999999999998
InTeBr,1.7355999999999998
Na8SnO6,1.7356
Zr15VO32,1.7356000000000005
CeZrO4,1.7356999999999996
Ca2Al11Si13Ag7O48,1.7357
ThTlCuSe3,1.7357000000000005
Cs2MoS4,1.7357999999999998
Rb3InO3,1.7359
NaScGeP2SO12,1.7359
Cs2TlBiBr6,1.7359000000000002
BaTh2S5,1.7359999999999998
Na2O2,1.7361
Na6Ca4Ta8Si9(SO8)9,1.7361000000000002
Ca(FeO2)2,1.7361000000000004
SmCrO3,1.7362000000000002
TlPS3,1.7362000000000002
NbAgO3,1.7362000000000002
Mg6GaBO8,1.7363
Sr2CaV2(Si2O7)2,1.7363000000000004
CrH12(ClO2)3,1.7364
Ba3As2H14S8O7,1.7364
MnHgC4(SeN)4,1.7364000000000002
Co3(AsO4)2,1.7365
TeMo2Se3,1.7365
LiMn(PO3)4,1.7367
K3ErMgV2O8,1.7368
Mn2Cr3FeO8,1.7368
Ca2Mn3Si3H3O14,1.7368000000000006
SbH6C(NCl2)3,1.737
InSiCN,1.7371000000000008
Y3CuSiS7,1.7371999999999996
Li2V3O8,1.7372
Hg3H4S2O11,1.7372999999999998
Rb3InO3,1.7373000000000005
Cd3Ga2(GeO4)3,1.7373000000000005
Tl2PtCl6,1.7373999999999998
Tb2MgMo2(ClO4)2,1.7374
Na2MgGe2(SbO5)2,1.7374999999999994
HgI2,1.7375
SrV(PO4)2,1.7375
Cs2LiSbI6,1.7376
BaMg30VO32,1.7377000000000002
BaCdS2,1.7377999999999998
KAgF4,1.7377999999999998
Cs8Fe2O7,1.7378
Mg5(GeN3)2,1.7379999999999995
MgSc4(FeO3)4,1.7381000000000002
Na2Ca2Zr2MnFeSi4O17F,1.7381000000000002
Li3Fe8(BO3)8,1.7381999999999995
Rb6InP3S14,1.7382
ZnAgPO4,1.7382
Na10Ca4Ta4Si7S5O48,1.7383
K2Os(Cl2O)2,1.7383
Na10Zn6Si3Sn2(S3O16)3,1.7384
LiVP2(HO4)2,1.7387
Rb4CO4,1.739
LiFe4(BO3)4,1.739
La2MgVO6,1.7390999999999996
RbVP2O7,1.7391
TiMn(PO4)2,1.7391
Li2VBO4,1.7394000000000005
MgV2(FeO2)4,1.7394000000000005