formula,band_gap (MP)
PbC7N10,3.0078
BaMo2(PO6)2,3.0078
Pb2CBr2O3,3.0078
Er2Te5O13,3.008
Na3SiSbCO7,3.008
Li2MnFe(BO3)2,3.0082
HgH4C2S2(N3Cl)2,3.0082
Cs2LiYI6,3.0085
RbVPO5,3.0085
Na10Ca3Hf5Si6(SO8)6,3.0085999999999995
Rb2SbCl3F2,3.0086000000000004
Na6Sc4Si3(SO8)3,3.0087
Li3Cr2(PO4)3,3.008900000000001
ReO3F,3.009
LaSbO4,3.0090000000000003
CrH14N4Cl3O,3.0091
RbTaTiO5,3.0092
Tm2WO6,3.0092
Yb4Br6O,3.0092
Li4Mn3Fe(BO3)4,3.0094000000000003
Ca(BS2)2,3.0095
HIO3,3.0095
BiBO3,3.0096
KRbGeO3,3.0096
Li2Ni2(SO4)3,3.0096
ErTa3O9,3.0096000000000003
Ho2VPO8,3.0097
NdAgH10C20(N3O4)2,3.0097
Cs2CaH4,3.0097
ErAlO3,3.0097000000000005
SrMg14BiO16,3.0100000000000007
Na6Mg5TaP3(SO6)6,3.0101
Tm2Te5O13,3.0101000000000004
Li2SiNiO4,3.0102
BaSi2(NO)2,3.0102
Li2Cr(PO3)4,3.0103
Sr4Nb2O9,3.0104000000000006
Cs2Ti4O9,3.0106
Li2SiNiO4,3.0107
Ba2ZnCr2CuF14,3.0107
Li2CoP2O7,3.0108
CdH8C2S2(NO)6,3.0108
Li4FeNi3(PO4)4,3.0109000000000004
BaZr2SnO6,3.011
Ca2Nb2O7,3.011
Li7VN4,3.011
Ca3Cr2(SiO4)3,3.0111
Ga2P2H4NO8,3.0112999999999994
Ca3Ti2AlSi3O14F,3.0113000000000003
Na10Ca4Al4Si3(S3O16)3,3.0114
Na10Y4Zr4Si7S5O48,3.0117
Na4Y3TaSi3(SO8)3,3.0117
ZnTe2O5,3.0118
KLi2MnPCO7,3.0119
KAsO3,3.0119
SrMg14CrO16,3.0119000000000007
Mg6VCoO8,3.0119000000000007
KLiTi2(PO5)2,3.012
Na10Ta6Al2Si11SO48,3.0122
Li7Mn(OF)3,3.0122
InCl3,3.0122
KTiAsO5,3.0123
PrSbO4,3.0123
NaCaIn3(SO4)6,3.0126
Cs4Fe(MoO4)3,3.0126
Ba6Na2Nb2P2O17,3.0126000000000004
Er2TeO6,3.0127
FeF3,3.0128
Nd2TeO6,3.0128
Li5VP3O11,3.0129
B3Pb3NO10,3.0129
Fe3(PO4)2,3.0130000000000003
NdWNO3,3.0130000000000003
Na3Y2Ta2SiP5O24,3.0132
Zn(C4N3)2,3.0133
Na2CoP2O7,3.0133
Li3Sb3(PO4)4,3.0134
Mg14SiNiO16,3.0134
Ho2TeO6,3.0134
K2MoH2(CO4)2,3.0134
Cs2KCoF6,3.0136000000000003
Mg(H2N)2,3.0137
LiVOF4,3.0138
Rb2Na(NO3)3,3.0142
Na6Sc2Al2Si3(SO8)3,3.0142999999999995
Na7Y2Si3Ge2(PO8)3,3.0143000000000004
CsLi2BS3,3.0144
AlBrO,3.0144
BaSrLaNbO6,3.0144
Ca3Ga2(Ge2O7)2,3.0145
KRb2AsBr6,3.0145
Na6La4Ga4Si3(S3O16)3,3.0146
Ca2ZrTi(GeO5)2,3.0146
LiAlSiH2O5,3.0146
Na4Ca3ZrP2(SO6)4,3.0147
LiMnPO4,3.0148999999999995
NaSnPCO7,3.0149
Gd5Y3O12,3.0149
LiFeF3,3.0149
Na6Ca5TaP3(SO6)6,3.0149
NaGa(TeO3)2,3.015
NaVTeO5,3.0152
Nd3AlSi5N10O,3.0152
LiSiBiO4,3.0152000000000005
Li4Ti5O12,3.0153
Li4Co(BO3)2,3.0154
Rb4Al2S5,3.0154
Li4Mn2Si3O10,3.0154000000000005
KMg6TiO8,3.0154000000000005
TiZnNiP2O9,3.0155
LiFeF3,3.0155000000000003
NaH6ClO5,3.0156
NaYInP(SO6)2,3.0156
B2H3,3.0157
Na5TiP2O9F,3.0159
Na3NbSi3GeO12,3.0159
LiCr2(PO3)5,3.016
SmBr3,3.016
Mg3(AsO4)2,3.0162
GdPH5CO7,3.0162
Mg6AlSiO8,3.0162000000000004
LiCaAl3N4,3.0163
Na3Ca3Zr2Si4(O5F)3,3.0164
K4TiO4,3.0164
Li2SiNiO4,3.0165
Ba2GdC2(O2F)3,3.0165
CS3NO2F3,3.0166
BaSrPrNbO6,3.0167
Li2Si2Ni2O7,3.0167
AgH3CN2,3.0167
TlF,3.0167999999999995
Na3AsH22S2O13,3.0169
Ba2YBr7,3.017
Na3CaAlSi(SO6)2,3.0170000000000003
BaLu2O4,3.0171
Na8Ca3ZrSi3(SO8)3,3.0172
K3HPtS2(ClO3)2,3.0173
Ca3Hf2AlFeSiO12,3.0174000000000003
Li2MnFe(PO4)2,3.0175
MgPbF6,3.0176
NaLaTa3SiP5O24,3.0177000000000005
Na2Ta3AlSi2(PO6)4,3.0178000000000003
Sr2LaTa3O11,3.0179
RbAl(SeO4)2,3.0179
Li3CoPCO7,3.018
KPrNbInO6,3.018
K5Li3Ti8(AsO5)8,3.0181
Mg5Nb(BO4)3,3.0182
SrCaI4,3.0182
Cs2Hf(WO4)3,3.0183
Y10Ta4O25,3.0184
Bi5O4F7,3.0184
PH18PtC6S3BrF6,3.0185
LiCr(PO3)4,3.0185
VN3O10,3.0186
Cs2NaGdCl6,3.0186
Co2BP4H2Pb4ClO18,3.0187
CoH18C4N8(ClO)4,3.0187
Na3Ca8Ta4P3(S5O24)3,3.0187000000000004
YSbMo2O9,3.0188
Na10TaGa7Si6(SO8)6,3.0188
KNaMn(Si2O5)2,3.0188000000000006
LiNiPO4,3.0188999999999995
Na4Zr2Al2Si3(SO8)3,3.0189000000000004
Na3GaCl6,3.019
KTaTiO5,3.019
Al11AgO17,3.0191000000000003
Sr2LiZrCrO6,3.0192
YSn2BiO7,3.0192000000000005
Na6MoN4,3.0192999999999994
VH6SO8,3.0193
Zn7Cd2(PO4)6,3.0194
Co2BP3(H3O7)2,3.0194
Si4SnH35(C6N)2,3.0196
ZnFe(SiO3)2,3.0196
Li2V(PO3)4,3.0199
Rb2MnF4,3.0201
Ca(C4N3)2,3.0202
B3H12CN4O,3.0203
VPPb3O8,3.0205
Na6Sc2Ga2Si3(SO8)3,3.0208000000000004
CoPH16NO10,3.0208000000000004
K2Ti4O9,3.0211
K4H4WC8(N4O)2,3.0212
Ta2ZnO6,3.0212
Ba2SiS4,3.0213
LiFeSiO4,3.0214
Na7Ca3Ta(PO4)6,3.0214
LiMg6WO8,3.021699999999999
Ta7BiO19,3.0217
NaIn(IO3)4,3.0219
Ho6MgWO12,3.0219000000000005
Ba6Te10Br2O25,3.0219000000000005
Ba(GaO2)2,3.022
Na3CrH10C6O17,3.022
ZnFe2(PO4)2,3.0221
K2TiOF4,3.0222
SbOF,3.0222
Cr2(WO4)3,3.0223
Sr3Li3La5O12,3.0223000000000004
LiFeSiO4,3.0224
NdVO4,3.0225
K4Mn(MoO4)3,3.0225000000000004
Li2VPO4F,3.0226
PBr2N,3.0226
InCl2,3.0226
RbNaMg30O31,3.0227000000000004
Sb4O5F2,3.0228
Na4Al3Fe(SiO3)8,3.023
Zr(WO4)2,3.0231
Cs3Sb2N3(O3F2)3,3.0231
LiMg6BO7,3.023199999999999
LiCrP2O7,3.0234
SnH8(CI)4,3.0236
Li2FeNi(PO4)2,3.0236
Na3GdCl6,3.0237
Li3Tm(NO3)6,3.0238
Na3TaTi(SiO4)3,3.0239000000000003
NaCa2Mg2V3O12,3.0239000000000003
Na2CN2,3.024
LiNiPO4,3.024
SmVO4,3.0241
Al2Fe(PO4)3,3.0241
Na3Ta10Zn2Si3(P5O24)3,3.0241
Rb2TeH6SeO10,3.0242
KInBr4,3.0242
Na8Ca2La2Si3(SO8)3,3.0244
VF5,3.0245
H15IrBr3N5,3.0246
Ba3Zr2O7,3.0246000000000004
LiNiPO4,3.0247
LiMnPO4,3.0247
NiH32C8S4(NO5)2,3.0247
YbInBr3,3.0248
Cr(PO3)2,3.025
Li2Mn2Si2O7,3.0250000000000004
Na3GdCl6,3.0252
Na14Hf2Mg6Si5S7O48,3.0252
Rb2CrAgF6,3.0253
B6Pb3O11F2,3.0253999999999994
Sc11Nb3O24,3.0254000000000003
H4CS(NO)2,3.0256
Mn3(PO4)2,3.0258
Li2MnFe(BO3)2,3.0258000000000003
LiCo2P3O10,3.0259
CoH20PtC4(NO3)4,3.026
K2Mn2(MoO4)3,3.0261
NaSm9Si6(SO12)2,3.0262
H2RuC3(ClO2)2,3.0263
NaVCdO4,3.0263
BaBi2(MoO4)4,3.0264000000000006
Ba2Mg3H10,3.0265000000000004
KHoCoSi2O7,3.0267
Na2Ca4Hf4SiS11O48,3.0267
RbSb2C2O4F5,3.0267
BaGe4O9,3.0267
NaCdIn2(PO4)3,3.0268000000000006
CaCo(PO3)4,3.0271
Cs2HgCl4,3.0271
SrLiAlO3,3.0271
NaSrNdWO6,3.0272
LuGaO3,3.0274
CaH2,3.0275
Ac2S3,3.0275000000000003
ZnH4SeO6,3.0276
Li8Fe(O2F)2,3.0276
Zn2SiH2O5,3.0276
Li2Fe3Si3O10,3.0276000000000005
Ba4CaZr5O15,3.0277
NbInO4,3.0277
K2CaV4H14O19,3.0279
DyYO3,3.028
RbAlAs2O7,3.0281
Rb2MoP2O9,3.0281
Ba6CaI14,3.0281
Na2ZnGaP(SO6)2,3.0282
Rb2Te(H6O5)2,3.0282
Mg2TiO4,3.0283
Sm2TeO6,3.0283
Ho2SO2,3.0283
AgH14C3S3N6ClO,3.0284000000000004
NaSc2In2PS5O24,3.0285
BaTe2Mo2(HO6)2,3.0286
KDyH2C2SO9,3.0287
MnNiP2O7,3.0287999999999995
ZrSCl6O,3.0288
Na9MgTa5(SiO4)9,3.0288
TlBrO4,3.0289
BaNa2(Ge4O9)2,3.0289
Li4V(PO3)6,3.0291
NaCaMgCr(SiO3)4,3.0293
KSnPO5,3.0294
Cr(PO3)3,3.0295
LiSnPO4,3.0295
CsAl3(SiO4)3,3.0296000000000003
Na10Ta2Al6Si7S5O48,3.0297
ZnAg(PO3)3,3.0297
Na2LaInP2SO12,3.0298
SrCrF5,3.0298
Na3Y2In2P3(SO8)3,3.0298000000000003
Al2ZnO4,3.0302999999999995
Na4ScTa3Si5SO24,3.0303000000000004
Na2Ca(CO3)2,3.0303000000000004
NbGe(PO4)3,3.0304
La2TiZnO6,3.0304
GaH36C12S6(IO2)3,3.0307
Dy2(SeO4)3,3.0307000000000004
Na6Ta2Al2Si5SO24,3.0307000000000004
Pr4S3NCl3,3.0308
Al(SiO3)2,3.0308
NaZnAs(H2O3)2,3.0309
Li4Mn3Fe(BO3)4,3.0309
Rb3NbH4(C2O5)3,3.031
K2PrI5,3.031
Na5Y2Ga2P5SO24,3.0311000000000003
LiCrF4,3.0313
Si3PH27C9BrN2,3.0314
SrCaO2,3.0316
B5H6Br,3.0316
TiZnSiO5,3.0316000000000005
Sr3TeO6,3.0317
Ga10GePb3O20,3.0318
Cs3Sc2Br9,3.0319000000000003
P4PtBrO10,3.032
VH8C2NO3,3.032
NaTaNbSi2PO12,3.032
Zr(TeCl6)2,3.0321
ZnCu2H4(SO4)2,3.0321
BaMg30FeO32,3.0322
Mg3(AsO4)2,3.0323
Li5VF8,3.0323
K2Ni(CN)4,3.0324
Na10Ta2Ga6Si7S5O48,3.0324
NdAgH18C20(NO2)6,3.0325
ZrNCl,3.0325
LiNiBO3,3.0326000000000004
Ba3GaS4Br,3.0328
C7SeNF5,3.0328
Na4Si3(SnO6)2,3.0329
NaLi3V4O12,3.0329
Na4LaTa3Si4(PO12)2,3.0329
Er2TeO6,3.0329
Li4Mn3Fe(BO3)4,3.0329000000000006
Os4C13(SO6)2,3.033
La2ZnO4,3.033
Na2ScTaSi(PO6)2,3.0332
Lu2Te5O13,3.0335
PrVO4,3.0336
Y(NO3)3,3.0336
SnH6C2S,3.0337
Li8Mn3Fe5(BO3)8,3.0338
Li2V(CO3)2,3.0338
Na6Ta2Ga2Si5SO24,3.0338000000000003
Li2TiO3,3.0338000000000003
Li3InO3,3.034
Sr(H2O3)2,3.034
LiFeF3,3.0341
LiVO3,3.0342
LaTa7O19,3.0343
KH13C4(NO)2,3.0343
K2MoP2O9,3.0344
KNa3Al4(SiO4)4,3.0344
Na10Sc6Ta2Si7S5O48,3.0344000000000007
Sm2TeO6,3.0346
Ba2SrI6,3.0347
BN3Cl2,3.0347
Na8ZrZn3Si3(SO8)3,3.0348
MnZnF4,3.0349
K2ScAgF6,3.0351
Ba3LaBr9,3.0352
GdH9C5(NO4)2,3.0353
LiMg4V3O12,3.0354
K2Se2O7,3.0355
GdClO,3.0355
KNbWO6,3.0355000000000003
Ca4Nb2O9,3.0356
Rb2AgC3(SN)3,3.0357000000000003
NaVO3,3.0358
RbNO3,3.0358
Ho2TiO5,3.0358
Zn(C4N3)2,3.0359000000000003
Na3Gd(PO4)2,3.036
Na5Ga2SiSn2P5O24,3.0361
Li2Fe2Si8O19,3.0361
MgGe4(BiO6)2,3.0361
Li2CoH8(CO5)2,3.0362
Na2LuAgCl6,3.0362
HS3N,3.0362
Na3TaAl3P5SO24,3.0363
LiFe(SiO3)2,3.0363
H13(C5N)2,3.0363
LiFeSiO4,3.0364
Li2Mn(Si2O5)2,3.0364
Na3In4P3(SO8)3,3.0364000000000004
CoP2(H4O5)2,3.0365
NaCrO2,3.0365
Y2Si3(NiO4)3,3.0365
Li4Cr3GaO8,3.0366
K2SrV4O12,3.0368
Dy2Hf2(MoO4)7,3.0368
GdH2ClO2,3.0368
LiSnPO4,3.0368000000000004
Rb3TiF7,3.037
Li4FeNi5(PO4)6,3.0371
Cs2AgCl3,3.0371
NaZrSn(PO4)3,3.0371
LiMnPH2O5,3.037100000000001
NaYZrSi(SO6)2,3.0372
Ti(GeO3)2,3.0372000000000003
MnZnP2O7,3.0374
Li2VF5,3.0374
SnPHO5,3.0375999999999994
Rb2YTlI6,3.0376
LiMnF3,3.0376000000000003
Li4Ni7(PO4)6,3.0377
Na6Ta2In2Si5SO24,3.0377
BaZrO3,3.0377
Nd4(WO5)3,3.0378000000000007
Ba2HfO4,3.4370000000000003
ZnSn(PO3)4,3.4370000000000003
KCoP2H5O9,3.4371
Na6Hf3MgSi4(SO12)2,3.4372
Ba2TeP2O9,3.4372
Na10Zr5Zn3(PO4)12,3.4374
Ba2LaCl7,3.4376
PbBrCl,3.4376999999999995
CdH12C2(NCl2)2,3.4379
ZnSiO3,3.4379
Ca17Ni19(PO4)24,3.4379
CaFe(SiO3)2,3.438
CaSiO3,3.438
MgFeP2O7,3.4382
Li2Fe2(WO4)3,3.4384
Na6ZrZn7(SO4)12,3.4384
K2MgH4,3.4385
NaCa2TiSi2O8F,3.4385000000000003
LiFe(PO3)3,3.4388000000000005
LiFePO4,3.4391
TlFeF3,3.4393
CsDy(WO4)2,3.4395
Na8Ti5O14,3.4395
Li4Ga3Si3IO12,3.4396999999999998
PrH6(CO3)3,3.4398
NaZnIn(SO4)3,3.44
NiH20C4(N5O6)2,3.4401
InHSeO4,3.4401
BaSm2ZnO5,3.4403
K4V2O7,3.4405
BaNd2(MoO4)4,3.4405
Na2TeHSO5F3,3.4407
RbSm(SeO4)2,3.4408
La26B8O51,3.4409
Cs2H2C2O5,3.4412000000000003
Li8Fe(O2F)2,3.4413
LiMn3P3(HO6)2,3.4415
Li2MnF4,3.4416
SeO2,3.4417
CaMg14NiO16,3.4417
KMg14BiO16,3.4419999999999997
Li4FeSi2O7,3.442
BaLa2BeO5,3.442
NaAl(MoO4)2,3.4421
Ca3V2O8,3.4422000000000006
Y2(MoO4)3,3.4423000000000004
Sr(H8O5)2,3.4424
Na3Li3Mn2P2(CO7)2,3.4426
Ag2H12C6N3Cl,3.4426
La2WO6,3.4428
KNd(SeO4)2,3.4429
LiP2WO8,3.443
TbGaO3,3.443
CdH8C2Br3N,3.4432
Al2AgCl5O,3.4432
KNaNdNbO5,3.4434
LiTcH6O7,3.4434
Bi3O2F5,3.4435
K2Sn(S2O7)3,3.4436
BaMnP2O7,3.4437
LiNiPO4,3.4437000000000006
SnClF,3.4437999999999995
K2(SO2)3,3.444
LiNi4(PO4)3,3.4441
Li3ZnFe2(PO4)3,3.4441
ZnSeO3,3.4441999999999995
Na5ZrGa3(PO4)6,3.4444
Sr2HfO4,3.4445
RbIn3F10,3.4446000000000003
K5In(MoO4)4,3.4447
CsMgFeF6,3.4449
MnH12C4(N9O2)2,3.4449
Na8CaHf3Si5SO24,3.4449000000000005
Ba9La5Cl33,3.4450000000000003
Na3Li3Mn2P2(CO7)2,3.4453
H9C3SeSN2Cl,3.4454
LiFePO4,3.4454
KNaAl2As2O9,3.4455
Ga2PbO4,3.4457000000000004
YH7C4O11,3.4459
Na3TbV2O8,3.4461000000000004
LiMnF3,3.4463
AlTlI4,3.4464
Li7SbO6,3.4465000000000003
Na14Ca2Hf6Si9(SO16)3,3.4466
Na3GdV2O8,3.4467
Rb3Na3Sc2(MoO4)6,3.4467
Na7Ca2Ga2P5SO24,3.4468
Cs3H(SeO4)2,3.447
Cs3AlGe2O7,3.4472
LiSn2(PO4)3,3.4473000000000003
K6Ti2O7,3.4474
Rb2ScTlCl6,3.4475
Er(IO3)3,3.4476
Mg(NO3)2,3.4478
RbEr(WO4)2,3.4478
H9C6N10ClO5,3.4478
LiCdPO4,3.4478000000000004
Cs3LaN18,3.4479
Ba2HoTaO6,3.4479999999999995
AgBHC12(NF2)9,3.448
YGeBiO5,3.448
Pr2(SeO3)3,3.4481
LiFeSO4F,3.4481
RbSm(WO4)2,3.4483999999999995
P4(SeO2)3,3.4484000000000004
Tb3TaO7,3.4485
Mg3H6SeO3,3.4485
Na3CaZr3P5SO24,3.4486
Ca3WO6,3.4487
BaNa4Ti2Si10(BO15)2,3.4488
AsNO4,3.4488
MnCO3,3.4490000000000003
Na2LiMnPCO7,3.4490000000000003
Sc2(WO4)3,3.4491000000000005
Na3HfGaSi2SO12,3.4492000000000003
KRb2Mo(OF)3,3.4493
Sm3TaO7,3.4493000000000005
Ba2TmPaO6,3.4494
Gd3Y13O24,3.4495
Na3Mg4CrSi8(O11F)2,3.4495
LiTa3O8,3.4495
GaH13(C2N)2,3.4496
Ca3W2O9,3.4497
Na3TaSi3GeO12,3.4498000000000006
KSn2(PO4)3,3.4498999999999995
Na4CaZrSi2SO12,3.4503000000000004
Na6Al8Si3(S3O16)3,3.4506
K3GaCl6,3.4506
BrF5,3.4507
KPr(SeO4)2,3.4507
Ho3TaO7,3.4507
LiSn2(PO4)3,3.4508
NdPb7F17,3.4508
RbTa(BO3)2,3.4509000000000003
ZnCN2,3.4511
CaWF5,3.4511000000000003
Na5Al3Sn(PO4)6,3.4512
TaBO4,3.4514
SNF,3.4515
LiMg4Al(MoO4)6,3.4516
LiMn2F5,3.4517
K2NaCa2TiSi7HO20,3.4517
Na2LiMnPCO7,3.4518
Ba2HoV3O11,3.4518
LiScAs2O7,3.4519
Zn2TeMoO7,3.4519
Sr2V2O7,3.452
LiP3W2O13,3.4521
Na3Zn3Ga(SO4)6,3.4523
RbScO2,3.4523999999999995
Na6ScTa3(SiO4)6,3.4524
TlGaBr4,3.4525
BaI2,3.452500000000001
Gd(PO3)3,3.4526
Si5O8,3.4528
NaMg14BO15,3.4529
Na3TlF6,3.4532
H5NO5,3.4532
Al4B2O9,3.4532000000000003
Cs2RbGaCl6,3.4534
K2Er(NO3)5,3.4534
TbGd2Ga5O12,3.4534
KBaIn2(PO4)3,3.4535
Li2(BH)5,3.4535
Na6La4Hf4Si5S7O48,3.4536999999999995
KLuH8(CO3)4,3.4538
NaSrInWO6,3.4538
Li2Fe2(CO3)3,3.4539
La3Nd(GaO3)4,3.454
Cs3NaLi2(BO3)2,3.454
Sm3W(ClO2)3,3.454
Na6TaGa3Si2(PO6)4,3.4540999999999995
KZn4(PO4)3,3.4541
SrLa2Sc2O7,3.4542
Mg4Nb2O9,3.4542
Li3SiSbCO7,3.4543
InSiH11C3Br3N,3.4543
Na4La2Mg2SiS5O24,3.4543
La2TeO6,3.454399999999999
Li2Mn3(BO3)3,3.4546
HoIO,3.454600000000001
Na4TaGa(SiO4)3,3.455
NaPWO6,3.455
PrH16N7O19,3.4551
BaAsHO4,3.4552
CdH12C4Br3N,3.4554
H6CSBrN3,3.4555
CaLaGaO4,3.4555
CsSbH4O5,3.4555
CsMnF3,3.4556
Ba2HoPaO6,3.4556
La3TaO7,3.4556000000000004
LiGePCO7,3.4558
MgMnP2O7,3.4558
CaPbF6,3.4559
H8C3S3N4O5,3.4559
Mg4FeO5,3.4563000000000006
K2Ti(Si2O5)3,3.4563999999999995
NaLi5Fe2P2(CO7)2,3.4564000000000004
H9C4Se2N,3.4565
Sr(H8O5)2,3.4569
K3Rb5Te4H24(SO10)4,3.4569
K2MgP2WO10,3.4571
Na5Sc2Ga2P5SO24,3.4571
LiFeBO3,3.4573
Nd3SOF5,3.4574
LiFePO4,3.4574
SrCaNbInO6,3.4575
Na3LaZr3Si3(SO8)3,3.4576
KNaPrTaO5,3.4578999999999995
CaSiO3,3.4579000000000004
CaSc2O4,3.458
La8Al7GaO24,3.458
Cd(NO3)2,3.4581
Cs3In2Cl9,3.4584
RbIn3F10,3.4584
YH2(CO3)2,3.4584
Na2BSbSO7,3.4585
Cs2Zr(IO3)6,3.4585
Ba2ErPaO6,3.4587
Mg6CdSnO8,3.4587000000000003
Ho3TaO7,3.4587000000000003
K3Na7Mg2H12S6(NO18)2,3.4588
HPbCSNO,3.4588
Sr3WO6,3.4588
NaHSeO4,3.459
AgH36C15S3N6Cl,3.459
ZnF2,3.4592
Na14Sc4Ta4Si11SO48,3.4592
Ba2SmPaO6,3.4592000000000005
Li2MnFe(PO4)2,3.4593
Li2TiGeO5,3.4593000000000003
Cs2MnF4,3.4594
BaTa4O11,3.4594000000000005
TlPO3,3.4595
K3InCl6,3.4596
LiFePO4,3.4596
KNaAs6(PbO3)8,3.4598
NdH10C21O11F15,3.4598
TlAg(PO3)2,3.4598
Cs2KAsCl6,3.4599
Na2TlGaF6,3.4599
BaLa2Cl8,3.4599
Na4Y2Zn2SiS5O24,3.4599
NaScAs2O7,3.46
Na6Y2Al2Si3(SO8)3,3.4601
Sr2CaWO6,3.4605
Sr2CdWO6,3.4605
YbO,3.4606000000000003
Rb3CO3F,3.4607
Li2Cr(PO3)4,3.4608
InH8C4NO10,3.4608
LiNiPO4,3.4608
Li2FeF5,3.4609
CdPHO3,3.4609
LiFeF3,3.4609
CsHO,3.461
LiFePO4,3.4616
PH8SN3O,3.4616
RbDy(WO4)2,3.4618
Mn3P4H2(PbO8)2,3.4619
Na3MgInP2SO12,3.462
Pr2Zr2O7,3.4620999999999995
RbNaTiO3,3.4624999999999995
ThSe2O7,3.4625
Sr2DySbO6,3.4626
Ba2DyPaO6,3.4628
Na2Ta4O11,3.4629
Sr2TbSbO6,3.4629000000000003
SrLa2Cl8,3.4631
RbNa2CrF6,3.4631
RbPr(WO4)2,3.4632
Ca2NbInO6,3.4632
K2LaAgCl6,3.4632
Li16Mn15Fe(PO4)16,3.4633000000000003
AgC4N3,3.4634
Li5Fe4P4O16F,3.4636
CdH8(NO5)2,3.4636
TlPb2Cl5,3.4637
SiGeN2O,3.4637
Ba2YTaO6,3.4639
MgH11C2NO10,3.4639
Ca2VClO4,3.4639000000000006
KH(IO3)2,3.4639999999999995
Li2FeP2O7,3.4639999999999995
Na6TaIn3Si2(PO6)4,3.464
AgH8C3S2ClO4,3.464
LiNiPO4,3.4640000000000004
K2ZnSiO4,3.4640000000000004
K2TeH6SeO10,3.4641
NaCaVO4,3.4643
CaNb2O6,3.4643999999999995
CsLiMg14O15,3.4645
Na4AlInSi(PO6)2,3.4645
Ba2YV3O11,3.4645
Li2Fe2Si4O11,3.4646
CsMg6BiO8,3.4646000000000003
K3Lu(SiO3)3,3.4647
Ba2TbPaO6,3.4649
Li2Fe3(P2O7)2,3.4650000000000003
CsMoAsH2O7,3.4652
SrZrO3,3.4652
LiMnPO4,3.4653
Na10Mg4Al4Si3(S3O16)3,3.4653
Mg3Si3(BiO6)2,3.465300000000001
Li2Si4NiO10,3.4654
LiP2WO7,3.4655
Li3Sm3(TeO6)2,3.4655000000000005
KEr(SeO4)2,3.4656
Li2Ca(SiN2)2,3.4658
K3La2(NO3)9,3.466
SrCaI4,3.4660999999999995
MnH2(CO2)2,3.4661
Ba2PrPaO6,3.4661000000000004
Ca3Sc2(GeO4)3,3.4662
Ba2NdPaO6,3.4662
H21C7S3N3O8,3.4663
MgMo2O7,3.4664
K2PrAgCl6,3.4664
Sb3O2F5,3.4665
BaSrI4,3.4665
RbPr(SeO4)2,3.4666
Rb2LiTlF6,3.4666
Sn(PO3)4,3.4667
Rb2NdH8N5O19,3.4667000000000003
BaSrI4,3.467
Na3Sc2In2P3(SO8)3,3.4671000000000003
Na2Ge2O5,3.4672
LiSb(PO3)4,3.4673
Ca(H8O5)2,3.4675
CaMg6FeO8,3.4677
LaTaO4,3.4680000000000004
TmMoO4F,3.4681
CrH17N4Cl2O3,3.4681
BaLa2Br8,3.4682
BaSrNd4O8,3.4682000000000004
Cs2ZrAl2(MoO4)6,3.4683
Na2LiMnPCO7,3.4684
Cs2RbAsCl6,3.4685
SrCa2I6,3.4686000000000003
Re2O7,3.4687
Rb2PrH8N5O19,3.4687
Ba2DySbO6,3.4688
NdClO2,3.4689
CaSiN2,3.469099999999999
K2RbLaV2O8,3.4692
BaLi4O3,3.4693000000000005
Rb2TmAgCl6,3.4694
LiFeF3,3.4694000000000003
RbGd(PO3)4,3.4694000000000003
ZnH12C3SeS3(N3O2)2,3.4695
MnH8(BrO2)2,3.4697
Sr2LuTaO6,3.4697000000000005
Ba2DyV3O11,3.4698
Li6Sn2B4SO16,3.47
Rb6Te3P6(H13O20)2,3.47
RbBiF4,3.4703
Sr(H8O5)2,3.4704
Na3PrV2O8,3.4705
Th2Te3MoO13,3.4705000000000004
LiFeF4,3.4706
CaZrO3,3.4707
Cs2RbSbCl6,3.4707
SrCaLaSbO6,3.470800000000001
AgH12N4F,3.4709000000000003
Na14Zr4Si11Sn4SO48,3.471
Na6Zr3ZnSi4(SO12)2,3.471
BaSrDySbO6,3.4710000000000005
GaH19C8,3.4711
LaP5Cl18O17,3.4712
La6TaGa11O28,3.4712999999999994
Na8Hf3MgSi5SO24,3.4713
Nd3TaO7,3.4716
NdBr2Cl,3.4716
SrCaI4,3.4717
InH4CSeO7,3.4718
Li3MnPCO7,3.4721
Sr(BN)2,3.4722
KAs3(PbO3)4,3.4726
CoH20IN6(ClO2)2,3.4728
CsKC2,3.4731
NaCaAl3(SiO4)3,3.4731
Na15CaTa11(SiO4)18,3.4731
LiNiPO4,3.4732000000000003
Ba4NaGa2B8(BrO6)3,3.4734
La2Zr2SiS5O24,3.4735
CsSm(WO4)2,3.4736
CaTa2O6,3.4738999999999995
ZnSi2NiO6,3.4739
Ba2TbV3O11,3.4739
K3AsCl6,3.4739
Li2Ta4O11,3.4741000000000004
Ba3Sc(BO3)3,3.4742
Ba2DySbO6,3.4745
LiMnPO4,3.4749
Cs2LiTlF6,3.4749
Na6YTa3(SiO4)6,3.4752
Li2Mn3(P2O7)2,3.4753
Na4ZnCd(SiO3)4,3.4754
Na3Zr3InSi3(SO8)3,3.4755000000000003
Al2NiO4,3.4756
Li2Fe2(CO3)3,3.4756
Na2CaHfSi(SO6)2,3.4756000000000005
LiMnF3,3.4757
Ba2CaI6,3.4758
K2Ba(Ge4O9)2,3.4758000000000004
Li2Mn(Si2O5)2,3.4758999999999998
HgH4C12O3F8,3.4759
NaLi2MnPCO7,3.4761
Sr2PrSbO6,3.4763
Sm(IO3)3,3.4764
Pb2CO3F2,3.4765
Li3Sb2(PO4)3,3.4768
Na2LiMnPCO7,3.4769
Na3Ta2Si3Ge2(PO8)3,3.4769999999999994
NaAlAsO4F,3.4772
Na2BiPCO7,3.4772000000000003
NdSi3N5,3.4773999999999994
NaZrScSi(SO6)2,3.4774
SrNi2P2(H2O5)2,3.4774000000000003
Na2Al2Si3(HO3)4,3.4775
BaSrYSbO6,3.4776
Li2FeF4,3.478
MnH9C4NO6,3.478
Ca3V2O8,3.478
Cs3H(SeO4)2,3.4782
Te2P2O9,3.4783
SnSO4,3.4783
Fe(CO)5,3.4783
BSbO3,3.4785000000000004
CaMnP2O7,3.4785000000000004
MgCrP2O7,3.4787
Li5Cl3O,3.4788
CdH24C4(BrN2)6,3.4789
LiNiPO4,3.4791
Na3LaIn(PO4)3,3.4792
Na10Ta7Al(SiO4)12,3.4792
H12C4Se(NO)2,3.4793
CsMoF7,3.4794
Ba2Fe3F10,3.4795
Li2Fe2Si2O7,3.4796
Sn3(PO4)2,3.4799
ErNbO4,3.4799
Na2ZnFe(PO4)2,3.4799
H18Se3(NO3)4,3.4800000000000004
NaZn(H3O2)3,3.4801
LiSnCl3,3.4801
In2(Se2O5)3,3.4802
K2MgGeO4,3.4802
Sr9TmV7O28,3.4802000000000004
Ba2CaI6,3.4802000000000004
MgTe(H4O3)3,3.4803
Na2BiAsCO7,3.4803
Na3SmV2O8,3.4804000000000004
K3AgC4(SN)4,3.4805
K2GaPCO7,3.4805
K2RbAsCl6,3.4807
ErNbO4,3.4807
CsNa3TiO4,3.4808
BaFe(Si2O5)2,3.4808000000000003
LiMoP2O7,3.4809
HgH12(ClO7)2,3.481
Cs3FeF6,3.481
Na7Zr2Si5Sn2PO24,3.4810000000000003
Tl2CoP4(HO2)8,3.4811
BaZn2Si2O7,3.4811000000000005
Li6Ni5(P2O7)4,3.4812
BaCa2I6,3.4812000000000003
CaGeO3,3.4813
Na3H5(SeO4)4,3.4814000000000003
K2MoH(OF2)2,3.4815
Gd3Y13O24,3.4815000000000005
Rb2LaBr5,3.4819
RbMg14CrO16,3.4819999999999998
Si(H3C)2,3.482
NaCdF3,3.482
C3S2ClO2F3,3.4821
Nd4Ga2O9,3.4821
ZnH10C2S2(N4O3)2,3.4822
K5In(MoO4)4,3.4823
CaH8(NO5)2,3.4823000000000004
NaZr2CoF11,3.4826
LiMgVO4,3.4826
ThH10N4O17,3.4827
LaNd3(GaO3)4,3.4827
HoMoO4F,3.4827
BaHCl,3.4827000000000004
Li2Fe2Si4O11,3.4827000000000004
H6AuC3O2,3.483
Rb2CoP4(HO2)8,3.483
H3C3N5,3.483
Sr4Br6O,3.4836
Li3FeNi2(PO4)3,3.4838
KYMg30O32,3.4839
Ba2GdSbO6,3.4839
LaPr3(GaO3)4,3.4840000000000004
LiFeF3,3.4841
Rb2Mo(OF2)2,3.4841
Nd3Sm(GaO3)4,3.4841
CaSeO4,3.4841000000000006
Cs2CdBr4,3.4843
Cs3AsCl6,3.4844
HoNbO4,3.4844000000000004
NaIn(WO4)2,3.4845
SrCa2I6,3.4845999999999995
RbTa(GeO3)3,3.4846
Li2NiP2O7,3.4846000000000004
Na8Hf3ZnSi5SO24,3.4846000000000004
BaSrDySbO6,3.4847
Cs2VHO4,3.4847
H3ClO5,3.4848
BaSr3Zr4O12,3.4848000000000003
KPb2Cl5,3.4848000000000003
SmClO2,3.4849999999999994
Rb2CdP2O7,3.4851
LiSn2(PO4)3,3.4851
InH10C3O11,3.4852
K2CoP4(HO2)8,3.4852
Rb2Ti(Si2O5)3,3.4853
Na6Y4Hf4Si5S7O48,3.4853
Ba2GdSbO6,3.4853000000000005
InSb3F18,3.4854
Na3YGa(PO4)3,3.4856
Ba3Ta2CdO9,3.4856
LaB5H5NO14,3.4857
Na3SnPCO7,3.4857
SrGe12Pb2O27,3.4858
MnSi2O5,3.4858
InRe2C10ClO10,3.4859
Ca2LaSbO6,3.486
BaCaNdSbO6,3.486
Ba2PrTaO6,3.4861000000000004
Na3Mg2Ga2PS5O24,3.4862
SrGePbO4,3.4863
NaCaVO4,3.4866
Na7Ca2In2P5SO24,3.4868
Na3Al2(AsO4)3,3.486800000000001
Li2Mn(SiO3)2,3.4868999999999994
KMgIn(MoO4)3,3.487
Na3Li3Mn2P2(CO7)2,3.487
Ta2Cd(P2O7)3,3.4872
NaZrZnP(SO6)2,3.4873
Sr2LuTaO6,3.4874
Ba2ZrO3F2,3.4876
C,3.4876000000000005
ZrSiO4,3.4877
Li8GeO6,3.4877
KRb2AsCl6,3.4879
Ba6Lu2Ga4O15,3.4879
Cs3H(SeO4)2,3.4879999999999995
SrCaSn(PO4)2,3.4879999999999995
Mg14CdFeO16,3.4883
Na2SnCSO7,3.4883
MnH8N2(OF2)2,3.4884
SrTb2Sc2O7,3.4884
RbSmO2,3.4884
NaVH2(OF2)2,3.4885
NaIn(SiO3)2,3.4885999999999995