formula,band_gap (MP)
Li3VFeP2(O4F)2,2.446400000000001
NaNdTiO4,2.4465000000000003
NaClO2,2.4465000000000003
Na6CaNb5Si6(PO12)3,2.4465000000000003
Hg(IO3)2,2.4467
CsMo3Br3Cl4,2.4467
CaPrZrCrO6,2.4468
LiFe3O3F4,2.4469
Na5Nb2Al2Si3(PO8)3,2.4469000000000003
Li2VF5,2.447
Na5VO5,2.447
Li2Mo4O13,2.447
Ba3Fe2Cl2O5,2.4471
Li12Cr3FeP4(CO7)4,2.4471
NaNb4Si3(PO8)3,2.4471000000000003
CsAuF4,2.4472
Tl2SeO4,2.4472
Ba4SiGeS8,2.4472
Dy2MgW2(ClO4)2,2.4472000000000005
Li2FePCO7,2.4473
Ca2H6Ru,2.4473
MgZn2Co2(PO5)2,2.4474
Na2NbAlSi2SO12,2.4475
LiV3P3O11,2.4475
USb3O2F17,2.4478
Na3V5H18O23,2.4479
C3S4O,2.4479
LiFeP2O7,2.448
Li2CrSiO4,2.448
Th(PS3)2,2.448
Ba2CoF6,2.448
Li2FeBO4,2.4480000000000004
Na5Nb3AlSi5PO24,2.4481
Cs2MnBr4,2.4482
NaLi3Ti2Fe2(PO4)6,2.4483
Gd2Te4O11,2.4483
NiH15IO12,2.4483
Ba4Ga2Fe(S3F2)2,2.4483
Na3MgTaSi(PO6)2,2.4483
CaGdAlO4,2.4483000000000006
CdC2(NO)4,2.4484
Li10Zn(PS4)4,2.4484000000000004
PrTlP2S7,2.4485
Na3V5(H12O13)2,2.4485
Sr3CaS4,2.4485
Ti3Tl3(PO4)5,2.4485
Li3MnFeCo(PO4)3,2.4485999999999994
Na3V5H26O27,2.4488000000000003
TiNbTlO5,2.4489
Li7CrFe3(PO4)6,2.4489
Cs2U2Mo3O16,2.4489
PrFeGe2O7,2.449
Na6La3NbSi2(PO6)4,2.449
Na7NbIn3Si3(PO8)3,2.449
Li2FePCO7,2.449
RbVF3,2.4491
H3Ru3C10ClO9,2.4491
Na2CoH4(CO2)4,2.4491
Cs2Co2(MoO4)3,2.4492
Na15MgNb11(SiO4)18,2.4492
Sr2MgZrCrO6,2.4492
Ta(WO4)2,2.4493
SrVZnP2O9,2.4493
LiNiPO4,2.4493
CrP4O11,2.4494
NaInI4,2.4494
Sn4SF6,2.4495000000000005
LiFePO4,2.4496
Sb3O4F,2.4496
NaLaS2,2.4496999999999995
Cs2Mo(SO)2,2.4497
BaGeS3,2.4497
Na2Si2SnGeSO12,2.4498
K3La(PS4)2,2.4498
InAgP2O7,2.4499000000000004
Tm2TeO6,2.45
Li6Zn3(PS4)4,2.4502000000000006
Ca3PI3,2.4503000000000004
BaLaI5,2.4503000000000004
KTa5Pb2O15,2.4504
LiAlNiO3,2.4505
Pr2SiS5,2.4505000000000003
MgTe4H4(O3F4)2,2.4506
Cd2Os(CN)6,2.4507
Ca(BiO2)2,2.4507
FeP(H2O3)2,2.4507000000000003
Li7MnP4O14F,2.4507000000000003
Li2Cu2(Si2O5)3,2.4508
Na2Ti4O9,2.4509
Na2Y3TaSi2(SO6)4,2.451
Ba2Na7Ti16Bi7O48,2.4513
Ca2FeP3H4O13,2.4513
RbAuF4,2.4513000000000003
Al2Fe2Bi2O9,2.4514
Sr3W2O9,2.4515
Na5AlO4,2.4515
NaTiSn(PO4)3,2.4515
Na9MgNb5(SiO4)9,2.4515
Li6Zn3(PS4)4,2.4515
Na2H6PtC4N4O3,2.4515
Mg14TiCrO16,2.4515
Na2GeS3,2.4515
TiNi4GeO8,2.4516
Na3PrTi2Nb2O12,2.4518
RbPbI3,2.4518
Na2Sc2Ta6Si7S5O48,2.4518
MgSb2P2(HO5)2,2.4518
Ba2LaMgBiO6,2.4519
Li3V3(FeO6)2,2.4519
Ca2MgV10(H8O11)4,2.4519
Sr2MgZnWO6,2.4519
Sb5IO7,2.4519
NbTlV2O8,2.452
Li6AlFeO6,2.452
CsFeBP3O11,2.452
LiFeSiO4,2.4521
Mg2FeWO6,2.4521
Mg2Ti3O8,2.4521
Y6Al2SiS14,2.4521999999999995
SrMgV(PO4)2,2.4522999999999997
LiSiBiO4,2.4523
Er2TeO6,2.4523
NaCoH2C3O7,2.4523
CaGe2O5,2.4523
Li2VF5,2.4523
CsNaMg14O15,2.4523000000000006
Na10Zn4In4Si3(S3O16)3,2.4524
LaSCl,2.4524
BaVCdP2O9,2.4525
SrNdZrCrO6,2.4527
MnH16C4(Br2N)2,2.4529
Na14Nb5In3(SiO4)12,2.4529000000000005
Na3CaGaP2SO12,2.453
TiSi7H42C14(ClO)2,2.4531
Rb3SbS3,2.4531
Na5Ti2Nb2Si5PO24,2.4532
Li2PtF6,2.4532
SnGeP2SO12,2.4532000000000003
FeH4C3O5,2.4532000000000003
Ba3(ClO)2,2.4533
Na2Cd3Si3O10,2.4533
K2W3O10,2.4534
TiPb2Se2ClO7F,2.4534
Rb2LiInCl6,2.4534
TiAlP(SO6)2,2.4535
MgCr2O4,2.4536
TeAsH3NF11,2.4536
H6C(NO)4,2.4537
Na14Ta2Al6Si9(SO16)3,2.4538
MnB4O7,2.4538
Zn3As2(HO)16,2.4539
Mn2InC10ClO10,2.454
LiCaGaN2,2.4541000000000004
CaNiO2,2.4542
Na2Hf2Ti2Si3(SO8)3,2.4542
MoCl3O,2.4544
B2Pb4O7,2.4544999999999995
Li3V5(H8O11)2,2.4545
Tl2HgSe,2.4546
Fe2P2H9NO11,2.4546
Li2Co3(P2O7)2,2.4546999999999994
MoCl2,2.4548
Na3TiInSi2SO12,2.4548000000000005
NbNi2BO6,2.4549000000000003
Na2VF5,2.4549000000000003
Li2CdGeO4,2.455
Rb2Be2O3,2.455
Fe7Sb10(Br4O9)2,2.4551000000000003
P2S3,2.4551000000000003
TlNi4(PO4)3,2.4552000000000005
TiTlPO5,2.4553
V2OF7,2.4554
Sc3Si6N11,2.4555
K3FeMo4O15,2.4555
F2,2.4556
LiNiPO4,2.4556000000000004
HoTa3O9,2.4557
Li6SN4,2.4557
Li6Mn(FeO3)2,2.4557
LiFe(MoO4)2,2.4559
Li5VP2(O4F)2,2.4559
TlFe(MoO4)2,2.456
TiH30C10S5(ClO3)2,2.4561
MgAlCrO4,2.4563000000000006
Ca3AlN3,2.4565
Mn3TeP2Pb3O14,2.4566
Ba2AlV2F11,2.4566
Li2ZrFe(PO4)3,2.4566
BiIr3(CO)9,2.4566
Sc6TeO12,2.4567
Na3MgNi2SbO6,2.4567
Na3InSiSn(PO6)2,2.4569
LiCoPO4,2.4571
LiAlTe2,2.4572000000000003
TaTiSbO6,2.4573
Li6Zn3(PS4)4,2.4574
Na2TiTeO6,2.4574000000000007
KGd(CO3)2,2.4575
Hg(CO2)2,2.4575
Ag2H8C2S2N5ClO3,2.4575
Cs3Rb5Mo12(P3O17)4,2.4576
MgAl2(CoO3)2,2.4577
Tb3Si2S8I,2.4577
NbTl3S4,2.458
InH4S2NO8,2.458
Cs2LiNbS4,2.4582
Mg14FeSnO16,2.4582999999999995
Sr2SO,2.4582999999999995
Cs2Te4O9,2.4583
Mg6VZnO8,2.4584
Cs2MnSi5O12,2.4585
Cs2AlAgCl6,2.4585000000000004
KMo2P3O13,2.4586
Na8NbIn3Si4(PO12)2,2.458600000000001
Na4NbGa3(PO4)6,2.4587
RbSNO,2.4588
NbBO4,2.4588999999999994
Tl3BiI6,2.4589
Na3AlH6,2.4589
MgCo(WO4)2,2.4589
LiCrPO4,2.459
PS3N5F2,2.459
Na3TaZn5(SO4)9,2.459
CaC2,2.4591000000000003
Na2Te4MoO12,2.4592000000000005
CaEr15Si8Se11ClO28,2.4593000000000007
Li3NiO2F,2.4594
Cs2YAgI6,2.4594
BaMg6NiO8,2.4594
Ti2Si(SO6)2,2.4594
K4CO4,2.4594
Ba4SrRe3ClO15,2.4594
RbCrO2,2.4595
GdMoClO4,2.4595
Mg14ZnCrO16,2.4597
Na6Hf2Si5Ge2SO24,2.4599
BaMnPClO4F,2.4601
SrCaHfTiO6,2.4601000000000006
MgGa4(WO6)2,2.4601000000000006
Na3SmTi2Nb2O12,2.4601999999999995
Ca5(SiN3)2,2.4601999999999995
Li3Zn2SbO6,2.4602
Ta2Mn4O9,2.4602000000000004
NaAs4IO6,2.4607
AgH3BrN,2.4608
Li2MnCo(PO4)2,2.4609
Ti2P4H9C2NO16,2.4609
Gd2C(NO)2,2.4609
Na2Bi4O7,2.4609999999999994
Li2O,2.461
Si(PbO2)2,2.461
Y4Si2S3O7,2.4610000000000003
Na2AlAgCl6,2.4610000000000003
Na14Zn4In4Si5S7O48,2.4611
Fe(IO3)3,2.4612000000000003
C4O3,2.4613
MgZn2(FeO3)2,2.4613
K2SnCl6,2.4614
Sb2H18C3(IN)9,2.4614000000000003
Nb2PbO6,2.4615
K2Fe2B2O7,2.4615
Tl2Sn(GeO3)3,2.4616
H6CN6O5,2.4617
Co4Se3Cl2O9,2.4618
Mo(HO2)2,2.4619
Na3CaTaSi(PO6)2,2.4619
BaLa2In2O7,2.4620000000000006
LiV5H18N2O19,2.4621
Cs2Si2Se5,2.4621
H3Ru3Rh(CO)12,2.4621
Rb3Ti3(PO4)5,2.4621
SnPCl9,2.4621
K2B(CN)3,2.4621
Al2CdS4,2.4622999999999995
Cu2H6C3(BrN3)2,2.4623
Mg6FeCO8,2.4623
MgZn2(WO4)2,2.4623
TiH19C6N3Cl2,2.4624
Li2Cr3(NiO6)2,2.4624
Ba5Gd2ZrAl2O13,2.4626
KFeNi(PO4)2,2.4626
AgCN3O2,2.4627
Li5CrFe4(P2O7)5,2.4627
Ca2Sn3O8,2.4627
NaUP3O11,2.4628
K2DyCuCl6,2.4628999999999994
K3NaMnCl6,2.4629000000000003
Na7La3NbSi3(PO8)3,2.463
In2WO6,2.4632000000000005
Ba2YV2F11,2.4633
CdHgC4(SN)4,2.4633
Pm2MgS4,2.4633
Pb3SeO5,2.4633000000000003
Ta3Ga(PO4)6,2.4635
LiMo2AsO9,2.4636
MoH8(NF2)3,2.4636
Na6Hf4Ga4Si5S7O48,2.4636
Pb5SO8,2.4636000000000005
ZrTiO4,2.464
MnSiO3,2.4641
Ba4Ti11O26,2.4641
Na5Sc2SiGe2P5O24,2.4641
Mg3Cr2(Si2O7)2,2.4641
Na24Ta2Zn10Si9(SO8)9,2.4642
Mg3Fe2(GeO4)3,2.4642
SrTi(PO4)2,2.4643
KBa6Zn4(GaO3)7,2.4644
NaLaHfZrO6,2.4644000000000004
K2NaNb(OF2)2,2.4644000000000004
Ta2Hg3S(O2F5)2,2.4645
V2NiH24(N4O5)2,2.4646
Ba3HfTa4O15,2.4647
Ba6Y2Fe4O15,2.464700000000001
Ti4Mn(PO4)6,2.4649
Na6NbAl3Si2(PO6)4,2.4649
Ba2YI7,2.4651
Ba2NaNb5O15,2.4651
MgTi2(PO5)2,2.4653
NaLi2MoF6,2.4654
Na2VNiF7,2.4654
CdHClO,2.4655
TaZn2CrO6,2.4657
Cd2B2O5,2.4657
Sr2NiTeO6,2.4657
Tl2PO3,2.4658
Sr2TaN3,2.466
C13Cl12,2.466
KV(IO4)2,2.466
K4Ca(WO4)3,2.4664
Lu10Ti6O27,2.4665
Na5YNb3Si5PO24,2.4666
P2WO8,2.4666
Li5Cu(HO2)2,2.4666
LaTi6Bi7O24,2.4667000000000003
TmGaO3,2.4668
Li8Mn(O2F)2,2.4668
K2TmCuCl6,2.4668
HgCN2,2.4669
P5(WO6)4,2.4669000000000003
Dy6Al2SiS14,2.467
Cs2LiNF6,2.467
Ca3Co3(AsO4)4,2.467
Na6Nb5ZnSi6(PO12)3,2.4671000000000003
Cs2HgBr4,2.4673
LiTi3Sb(PO4)6,2.4673
Y2Al9Si27(N15O)3,2.4673
Ca3Cr2(Si2O7)2,2.4674
Ba5Re3ClO15,2.4674
Na4Zr2Ge5HO16,2.4674
K3MgNbO8,2.4677999999999995
Ag6Te4W3O20,2.4678
Na3Ti2In2P5SO24,2.468
CuH6C2SeI,2.4681
MnHC3O4,2.4681
CdMoO4,2.4682
Ba4MgTa10O30,2.4682000000000004
BC2N,2.4682999999999997
Nd2MgS4,2.4683
Ca(LaI4)2,2.4684
Sm2MgS4,2.4685
NaDy3Ti2(SbO7)2,2.4685999999999995
Na2FeSn(PO4)3,2.4688000000000008
Cs2RbTlCl6,2.4689
LiV(OF)2,2.4689
NaLaYSbO6,2.4689999999999994
LiMoP2WO11,2.469
RbGaS2,2.4690000000000003
SiO2,2.4692
TiPO4F,2.4692000000000003
Li2FePCO7,2.4693
K3FeMo4O15,2.4693
LiVNiO4,2.4694000000000003
K2Ca2MgH2(SO4)4,2.4694000000000003
Li5Ti7In(PO4)12,2.4695
Zn3Si4(BiO7)2,2.4696
K3ReC4(N2O)2,2.4696
CaZrNbFeO7,2.4697
K3AlSe3,2.4697
RbLa2TaTi2O10,2.4697000000000005
BeAlH5,2.4698
MgBiSbO5,2.4699000000000004
Na2LiV5H18O23,2.47
LiVPO5,2.47
ErBiO3,2.47
NaGdCl4,2.47
Sr3Ta4TiO15,2.4700999999999995
K2H14Rh2N12O17,2.4701
Si2Os3C12(ClO2)6,2.4702
K3Fe(CO2)6,2.4702
SbRu2C6Cl7O6,2.4703
H16AuC12S2N3O4,2.4704
Ag2Sn(S2O7)3,2.4704
CsMg14FeO16,2.4704
GeH12(NF2)4,2.4704
Gd3SbO7,2.4705
NaInAs2O7,2.4705
U2NiAs2(HO)24,2.4707
Li5FeO3F,2.4707
Fe(HO)2,2.4707
KH8N3,2.4707000000000003
Mg30AlBO32,2.4708
NaPrTiO4,2.4708
Zn3Fe2(SeO3)6,2.4708
Na6Y4Ta4Si7S5O48,2.4708
Li2CoGe3O8,2.4709
K2LuCuCl6,2.4709000000000003
Na2CaInP(SO6)2,2.4709000000000003
Na4MgGe3(PO4)6,2.4709000000000003
ZnCrP2O7,2.471
CaLaFeWO6,2.471
VZnF5,2.471
SnF4,2.4711
Na2TiCr(PO4)3,2.4711
RbBaTaS4,2.4711
K2SnCl6,2.4712
Hg2SBr4N2O3,2.4712
K2TbCuCl6,2.4713
VAsO5,2.4714
CoAg(CO)4,2.5384
NaTi3AlO8,2.5385
MgCo(WO4)2,2.5385
Mo3P5Pb3O23,2.5385000000000004
Zr3N2O3,2.5386
Na9CaTa9TiO30,2.5386999999999995
CaGa4O7,2.5387
Na4InSi2SnPO12,2.5387000000000004
LiFe(PO3)4,2.5387000000000004
Cs2Te(MoO4)3,2.5388
CsNb(PO4)2,2.5389
AsSeS3N5F6,2.5393
NaAg(CO2)2,2.5394
LiBiF6,2.5394
Ta2Zn2SnO8,2.5394000000000005
Na5In3Sn(PO4)6,2.5395
Mg3Co2(SiO4)3,2.5398
Ba3Y2O6,2.5398
KBaFe2(PO4)3,2.5398000000000005
TmTa5Ag2O15,2.5398000000000005
SbBrO,2.5399000000000003
Li5Si2BiO8,2.54
Ba5Re3BrO15,2.54
Li2Ti6Zn3O16,2.5401
Na3Ta5ZnSi6(SO12)3,2.5403
Li3VF5,2.5404
BaSm4Si3SeO12,2.5404
Na14Sc3Nb5(SiO4)12,2.5405
Sb3O4F,2.5406000000000004
Co(IO3)2,2.5407
Li2MnP2O7,2.5407
DyTa5Ag2O15,2.5407
Li3Fe2(PO4)3,2.5408
Mn4Be3Ge3SeO12,2.5408
FeAs2H3OF13,2.5409
Bi4O5F2,2.5409999999999995
ZnCoTeBr2O3,2.5411
LiUAs(H4O5)2,2.5412
Ca5(IO6)2,2.5413
ReH12N3Cl4O3,2.5414000000000003
Na6Ca2Hf2Si3(SO8)3,2.5415
BaMg14CoO16,2.5416
H7SIO10,2.5417
Mo(HO2)2,2.5418
MnTeMoO6,2.5418
Na2Ta6Al2Si7S5O48,2.5419
Na4YNb(SiO4)3,2.5420000000000003
Ge(BrF5)2,2.5421
Ca2MnNb2O8,2.5422
LiCoH24C8(N2O3)4,2.5422
Co4Si(CO)14,2.5423
Na8Mg2Sc2Si3(SO8)3,2.5423
NaLiMg30O31,2.5424
AlBiSeCl4,2.5424
Na6NbGa3Si2(PO6)4,2.5424
Na2SrVP2O9,2.5425999999999997
VPbOF5,2.5426
Tl4Mo5O17,2.5426
NaPb2IO6,2.5426
HC12N3F10,2.5427
FeH9(SO6)2,2.5427
P4S5,2.5427
Zn2SiO4,2.5428
LiVF3,2.5428
Cs2NdAgI6,2.5429
AlB2P2H7O13,2.5429000000000004
FePO4,2.543
TlMo2Cl7O2,2.543
KMoPO6,2.5431
CaRe3H9(S2O3)2,2.5431
Er2MgS4,2.5431000000000004
NaFe2P2H5O11,2.5432
Cs4(BSe)9,2.5433
CsMo4(PO4)7,2.5434
NaTi2Al5O12,2.5436
LiAg(CO2)2,2.5436
Rb2PrAgI6,2.5438
Li3Bi(BO3)2,2.5439
LiCrPH2O5,2.5440000000000005
Bi14WO24,2.5441000000000003
Sr15La2Cl36,2.5441000000000003
B10H13CSN,2.5442
Sr5(Sb11O19)2,2.5443
NaYSnWO6,2.5447
KLiSe,2.5447
VOF,2.5447
NaSrVF6,2.5448
Ba(H2O3)2,2.5448
Ca2AlSbO5,2.545
LiLa4AlO8,2.545000000000001
NaEr(PS3)2,2.5452
Rb2SnCl6,2.5452
Mg2NiWO6,2.5452000000000004
MoH12C4S2(BrO2)2,2.5453
VF5,2.5453
LiFe2F5,2.5454
KTi2(PO4)3,2.5455
Na14In4Ga4Si7S5O48,2.5456
Li2Co4OF8,2.5456
K2NaSbBr6,2.5456
Sb2HCSCl6O5F3,2.5456000000000003
LiVF3,2.5456000000000003
Tl8(CdN14)3,2.5459
Na5Ta2Zn2SiP5O24,2.5461
CdH4Br3N,2.5461
SrCo2As2(H2O5)2,2.5462
B10H13I,2.5463
H8C2SeS2(BrN2)2,2.5463
LiZn2AgWO6,2.5464
LiH2NO3,2.5465
LiFeP2O7,2.5465000000000004
Bi5O7F,2.5466
Ba9La5Br33,2.5467
SnH4C2NO4F,2.5469
K2MoAs2O9,2.547
K3TiO4F3,2.5471
GdWClO4,2.5471000000000004
Na4ZnSn3(PO4)6,2.5471999999999992
Na4Hf2In2Si3(SO8)3,2.5473
ZnCo(SiO3)2,2.5473
MgZnS2,2.5474
Na3CaTa5Si6(SO12)3,2.5475
BaYI5,2.5475
La4Bi2O9,2.5475000000000003
Ba2Sr5B4S13,2.5476
LiCrSiO4,2.5476
Na2V(PO4)2,2.5477
Na2HfTiSi(PO6)2,2.5478
CoH20C4SO10,2.5478
AsSXeNF10,2.5478
Sr2Mg(WO4)2,2.5479000000000003
CaH(CO2)2,2.5482
SnH8(NCl3)2,2.5482
Yb(GaS2)2,2.5483
Cs3TlCl6,2.5485
SnClF,2.5486
LiCr2P3O10,2.5486
Tm2MgS4,2.5487
LiMg30BO31,2.5487
K2PrAgI6,2.5488
Sm3Bi5O12,2.5489999999999995
VP2(HO)6,2.549
Y2MgBi2O7,2.5491
Li2CoO2,2.5492
Na4MgZr3Si3(SO8)3,2.5494
V2Zn4O9,2.5496000000000003
Li3Mo3(PO4)4,2.5497
FePO4,2.5497
Pr2ScNbO7,2.5497
CdCo(PO3)4,2.5498000000000003
H6AuN2ClO4,2.5501
Ba2VP2O9,2.5501
HfHg3(SeCl3)2,2.5501
KLaNbInO6,2.5501000000000005
TiCdO3,2.5503
Gd3W(ClO2)3,2.5504
Sr2GdNbO6,2.5504
P4WO12,2.5506
Li4Sb2C4SO16,2.5506
Na3SbS4O9,2.5508
RbNa3H4,2.5511
Mg(SbO2)2,2.5511
Mg17(As3O16)2,2.5512
MgTi4O9,2.5514
YFe3Se2ClO8,2.5517
Ba3Co3Te(PO7)2,2.5517000000000003
B10H14S,2.5518
LiTi2(PO4)3,2.5518
Na7Nb2Al2Si5PO24,2.5519
CrH12Pd(NO)4,2.5521000000000003
Gd3FeO6,2.5521000000000003
Rb2NdAgI6,2.5524
CsFe(SO4)2,2.5524
CaTi2(PO5)2,2.5527999999999995
Ba5Lu2ZrAl2O13,2.5529
V2Zn2O7,2.5529
ErInO3,2.5532
Li2Al2CrSbO8,2.5534
Si2Sn2O7,2.5534
K7Mo12H31Pt2O59,2.5534
CsBa2SnS4Cl,2.5537
H12W3C4S2Cl9O2,2.5538
Rb2InBiF6,2.5538
Na8Y2Si5Ge2SO24,2.5538000000000003
BaNaVF6,2.5539
Al7Cr(Bi2O9)2,2.5541
Li4MnSn3(PO4)4,2.5541
Sb2H8C3SCl6O5,2.5541
Ba3(YI6)2,2.5542
Na2HfTiSi2SO12,2.5544
Na2Nb4O11,2.5546
LiCaH3,2.5547
CaC2,2.5547
RbFe(MoO4)2,2.5548
K2TeH10(NO7)2,2.555
CaBiSbO5,2.555
Sr2YI7,2.5552
Ba5Ho2ZrAl2O13,2.5553
CsIO4,2.5553
ZnCrP2O7,2.5553000000000003
Li6Ni9(PO4)8,2.5554
Rb2Cr2O7,2.5555000000000003
Na3MgSn(PO4)3,2.5556
NaAl6Fe3Si6B3O30F,2.5556
K2TeCl6,2.5557
Sn5P6O25,2.5557
Te6Br2O11,2.5558
Na6Hf2Ti2Si5SO24,2.5558
SmAgH4C2SO10,2.5559
MnC4BrO4,2.5559000000000003
Cs2NaSbBr6,2.556
Co5Se4(ClO6)2,2.5561
Rb2AgBiF6,2.5561
MnH4(OF2)2,2.5561000000000003
NaY2In2PS5O24,2.5562
K2InGaF6,2.5562
LiSbPHO5,2.5562
Y2S2O,2.5564
Na3VH11IO13,2.5564
Li3NbS4,2.5566
CaCr(SiO3)2,2.5567
LiSnPO4,2.5567
HoCuO2,2.5567
Nd3SiS6Cl,2.5568000000000004
Bi17P5Pb5O43,2.5569
CS14,2.5569
Gd6WO12,2.5571
HgSeO3,2.5571
Li3NbHO2F7,2.5571
Li3Mn4P3H12O19,2.5572
H14C5(SN)2,2.5572
CrHSe3O8,2.5573
Gd3TaO7,2.5573
K2AgMoF6,2.5573
Cd3H6C2I6(NO)2,2.5574
V2OF8,2.5574
Na3HoTi2Nb2O12,2.5575
K2ErTi(PO4)3,2.5575
Li7Fe2P7O24,2.5575
NaTa2Ti2SiP5O24,2.5576
K2NdAgI6,2.5576
Tl2CoH12(SeO7)2,2.5576
Sm2Ge2O7,2.5577
Na6LaNb3(SiO4)6,2.5579
LiAlSi2H2O7,2.5579
NaMg30CoO32,2.5579000000000005
Cl2,2.558
Li3BiS3,2.558
SrCaV(PO4)2,2.5581
Na3NbGaSi2PO12,2.5581
K2YTi(PO4)3,2.5582
CsBr2F7,2.5583
Na6MnCl8,2.5584
SbPO5,2.5585
K2PtC4(N2Cl)2,2.5585
Ca3Sn3(AsO4)4,2.5586
Na2CaVP2O9,2.5586
Na14Nb4Ga4Si11SO48,2.5586
Er2SiSeO4,2.5586
MgGa4(WO6)2,2.5588
Li3V(BO3)2,2.5588
H11I(NO3)2,2.5588
Cs2NaAsBr6,2.559
In2Te2MoO10,2.5591
LaIn2Cl5,2.5591
BiH6C3(S2N)3,2.5591
MnH4S2O9,2.5591000000000004
Na5Ti4Si3(PO8)3,2.5592
Li2VFe(PO4)2,2.5592
YSF,2.5592999999999995
Te2Pb3(ClO3)2,2.5594
Na4Nb3GaSi4(PO12)2,2.5598
V2Cd2O7,2.5598
Li6PS5I,2.5598
CSNCl,2.5598
ThV4O12,2.5599
Mg3Te2Pb6WO18,2.56
LiVPH4O7,2.56
H4Ru3C9N2O9,2.56
B2Pb6WO12,2.56
TiGa2O5,2.5600000000000005
Li3SbS4,2.5601
CsTi3AlO8,2.5601
MoH4O5,2.5602
CrB6H36(C4O)2,2.5602
H6Pt(NO)4,2.5603
LiSn2P3O10,2.5603
TlGeSbO5,2.5603
K2CoH4(I2O7)2,2.5604000000000005
Rb2NaSbBr6,2.5605
Na15Nb11Zn(SiO4)18,2.5605
Ba2CaV2CoF14,2.5605
Na6ZnGe7(PO4)12,2.5606
Li5VF8,2.5606
NiH20(C4N5)2,2.5607
LiTiPCO7,2.5607
CS2N2O,2.5607
SrLaBr5,2.5607
K2TlFeF6,2.5608
Ba2TbMgBiO6,2.5609
LiCoPO4,2.5609
Co7P6(HO6)4,2.5609
Li4B4Sb2SO16,2.561
NaDySnWO6,2.5611
Li7Mn(OF)3,2.5612
Na10Si9Sn4Ge4(SO16)3,2.5612
Li2MnF6,2.5613
Ho2SiSeO4,2.5613
Na2VPO6,2.5614
NaFeH22C10(NO6)2,2.5615
BaCaGdNbO6,2.5615999999999994
MgMnO2,2.5616000000000003
Li2CoCO4,2.5619
RbMgH3,2.5619
MgC2,2.562
MgSn2(PO5)2,2.5621
Dy2S2O,2.5624
AlSiAgO4,2.5624
Na2Ti2Si(PO6)2,2.5624
Na5Ga2SiGe2P5O24,2.5626
CaZr3SiS5O24,2.5626
K3Li3TeO6,2.5626
LiW3O9F,2.5627000000000004
Nb2Te4O13,2.5628
LiVF3,2.5628
LiFeP2O7,2.5628
HC2N3,2.5629
MgSnO3,2.5629
Cl2,2.563
NaSr2IO6,2.5630000000000006
CaH8C6S2(NO4)2,2.5632
Ge3PbO7,2.5635
Na4Zr2Nb2Si5SO24,2.5635
LiMnBO3,2.5636
Sr2LiTaN3F,2.5637
SbH6C2I,2.5638
Gd3TaO7,2.5638
Li10Si(PS6)2,2.5638
Na18Mg4Ta8Si15(SO24)3,2.5638
Cs4SiO4,2.5639
Ca2Nb2CoO8,2.5639
NaSn2Ge2P5SO24,2.564
MgCdH4(N2O5)2,2.5641
Cs2Sn(HO2)6,2.5642
Na14Ti8Si11SO48,2.5642
RbAl(H2N)4,2.5643
WSCl4,2.5644
RbBiC4(SN)4,2.5646
Rb4SiO4,2.5647
Li2HN,2.5648
Sr3GeO5,2.5648000000000004
Na5Al3Si3Sn(SO8)3,2.5649
Mg14CuSnO16,2.5649000000000006
Li2FeF4,2.565
Li6Zn3(PS4)4,2.5651
MgZr2H10(S3O14)2,2.5651
Al6Cd4TeO12,2.5652
Rb2ErTi(PO4)3,2.5652
Sr2H8PtO8,2.5652
Li3VPCO7,2.5653
Li4Fe3OF8,2.5653
BaCdAs2O7,2.5654
Na4Ti5O12,2.5655
Ba2YI7,2.5656
Na5Nb2Si5Ge2PO24,2.5656
PbIBr,2.5657
S,2.5657
H10PtC2(NCl)2,2.5658
NaMnH2C3O7,2.5658
Sm3SiS6Cl,2.5659
TeMoWSe2S,2.566
SmAgO2,2.566
Sr3ZnPtO6,2.5661
TiAs2O7,2.5664
Lu2S3,2.5664
LiFe2F5,2.5664
NdCrGeO5,2.5664
Nd2Mo4O15,2.5665
Na3AsBr6,2.5665
Na10NbIn7(PO4)12,2.5665000000000004
TlGaI4,2.5666
CsLi2Gd4(BO3)5,2.5666
NbInP2SO12,2.5667
Ba4Lu6O13,2.5668
K3IrF6,2.5668
Hg2Te4Xe3(O2F13)2,2.5668
Sr(BiO2)2,2.5672
BaSrO2,2.5672
Nb2Te3O11,2.5672
H6C(SN)2,2.5673
Sr2BN2F,2.5675
MgMn2(PO4)2,2.5676
CoH20C22(N5O3)2,2.5676
NaLi3(H2N)4,2.5676
Li3Sb(PO4)2,2.5676000000000005
BaYI5,2.5677000000000003
Tl2Pt(CN)4,2.5679
Na2Si2Sn2SO12,2.5679
Ca3Fe7(SiO4)6,2.5679000000000003
Li2Cr2Si4O11,2.5679000000000003
Se2NCl5,2.568
TiSiO4,2.5681
BiClO,2.5681000000000003
K2TlInCl6,2.5682
AlC3(NCl2)3,2.5682
C2S9N2,2.5682
Cs2Co(PO3)4,2.5682
Ba2CeZrO6,2.5683
K2Zn3S4,2.5684
NaBS2,2.5684
Te4Mo3WS4,2.5685
FePO4,2.5687
ZrHg3(SCl3)2,2.5687
LiVF3,2.5687999999999995
K2MoC2O9,2.5689
Pb2ClOF,2.5689999999999995
TaMnNbO6,2.569
Na15Nb10Zn2Si15(PO24)3,2.5691
Li6Ti2O7,2.5691
Na3FeS2(O4F)2,2.5691
MgAl4Cr2O10,2.5691999999999995
Li4Co3Ni(PO4)4,2.5693
CsH,2.5693
Na2La3TaSi2(SO6)4,2.5694
Li2VP2O7,2.5694000000000004
Rb2SmCuCl6,2.5695
LiCrP2O7,2.5695
Na6Sc3NbSi2(PO6)4,2.5697
LuTa5Ag2O15,2.5698
B2(CN2)3,2.5699
RbNa3SnO4,2.5699
KTi3AlO8,2.5699
CsS2N3O4,2.5699
ScVO4,2.5699999999999994
PAuCl4,2.57
Cs2SmCuCl6,2.57
Na2Al2Si3(HO5)2,2.5700000000000003
Rb2NaAsBr6,2.5701
Ba2SrI6,2.5702000000000003
Na2ZrTiSi(PO6)2,2.5704
RbGeCl3,2.5704
LiCoPO4,2.5705
SrH6C4O7,2.5705
Mg7TiAl6Si8(H4O19)2,2.5706
Sn2PClO4,2.5706
H3CSN(ClO)2,2.5709
Fe3OF7,2.5709
K2ScSn(AsO4)3,2.5709
Na6Y2Ga2Si3(SO8)3,2.5710999999999995
MnSn(BO3)2,2.5711
BaNdInO4,2.5713
Pr3Si2S8I,2.5715
FeMo2H7O11,2.5715
TmScO3,2.5716
LiNiPO4,2.5716
Li4CrH8SO7,2.5716
Fe7Sb10(Cl4O9)2,2.5717
K2PtF6,2.5717
NaNO3,2.5717
LiVCdF6,2.5718
LiVPO4,2.5718
Ba2ScNbO6,2.5719
Mg14ZnCoO16,2.5721
AlBiBr6,2.5722
AsSe(BrF2)3,2.5724
CrP4O11,2.5725
K2GdCl5,2.5725
LiTi2(PO4)3,2.5726
CuH4C3ClO2,2.5729
CoH4(ClO)2,2.573
CdSiO3,2.573
SbBrF8,2.573
Li3B2SbO6,2.5731
Na4Ta2Ti2Si5SO24,2.5732
KSiH3,2.5733
NiTeO3,2.5735
Na4TiP2O9,2.5735
Sm3Si2S8I,2.5736
Na12Ta2Zn4Si6(SO12)3,2.5737
Na7Y2Ti2Si3(PO8)3,2.5737
Nd2ScNbO7,2.5738
Na2CaTi2(GeO4)3,2.5739
Tl2TeCl6,2.5741000000000005
BiOF,2.5742000000000003
Dy2SiSeO4,2.5743
Na4MgSn3(PO4)6,2.5745
BaSb2Xe5F22,2.5745
LiNi2OF3,2.5745000000000005
TiSO5,2.5746
Te3W2Se,2.5747
NaLaHf2O6,2.5748
NaLiTiAl(PO4)3,2.5748999999999995
ScNb(PbO3)2,2.5748999999999995
CI2,2.575
SbS(BrF2)3,2.5751
LiFeP2O7,2.5752
Cs2Fe2P3O8F7,2.5752
SrZnF2,2.5753
K4CO4,2.5753000000000004
Cs4Sb2O5,2.5754
KRbTi4(PO4)6,2.5755
P6(Pb2O5)5,2.5755000000000003
SnP2(HO4)2,2.5756
TiSnP2SO12,2.5757
Hg(CO2)2,2.5757
NaNbGa(PO4)3,2.5757
LiCoPO4,2.5758
LiVPO4,2.5758
Zn(PO2)2,2.5759
Na2Ta5In3(PO4)12,2.5759
ZrHg3(SeCl3)2,2.5759
K3LiMn4(MoO4)6,2.576
K2LiAlH6,2.5761
Rb2AgI3,2.5761000000000003
Mo3(SeS2)2,2.5762
Zr3Ti2(PbO3)5,2.5763000000000003
NaZr2Nb2SiP5O24,2.5764
K2NaAsBr6,2.5764
HoInO3,2.5765
RbMo3Cl7,2.5766
Y2MgS4,2.5767
Li3B2SbO6,2.5767999999999995
MnH12S2(NO5)2,2.5769
Na2MnPCO7,2.577
Li5NiHO4,2.5773
Na3Zr2Ti2SiP5O24,2.5773
CsNa2Mn3P4ClO14,2.5773
AgSbS(OF3)2,2.5773
TiSn6F16,2.5774
Y3Si5N9O,2.577500000000001
ScNbP2SO12,2.5778
Na4Y2Zr2Si3(SO8)3,2.5778
B20H30C2S,2.5779
Sr2SnO4,2.578
B84O11,2.5780000000000003
KLaZrSnO6,2.5782
AgC4(BrO)2,2.5782
Sr4Hf3TiO12,2.5782
Hg(PO3)2,2.5782000000000003
Tb3NbO7,2.5783
Li2Mn3Si3O10,2.5783
Te3MoWSe,2.5783000000000005
NaTiNbSi(PO6)2,2.5784
K3Ti3(PO4)5,2.5785
Na3CaTaSi(PO6)2,2.5785
Li10Zn(PS4)4,2.5786
BaCa2WN4,2.5788999999999995
Na2TiSi2SnSO12,2.5789
NaPrZr2O6,2.579
Cs2Sn(GeO3)3,2.579
Mn2C7S2O7,2.5792
KMnVO4,2.5794
TiBi2O5,2.5795000000000003
Ca2Dy3Sb3O14,2.5796
Ba4LiNb3O12,2.5798
V3Pb5ClO12,2.5798
K3NaMoC4(N2O)2,2.58
Na2ZrSi2GeSO12,2.58
Na4Ti5O12,2.58
Na6Ti4Si5SO24,2.5801000000000003
Na10La4Ta4Si9(SO16)3,2.5802
LiNiOF2,2.5804
NaHfNbSi(PO6)2,2.5804
H9Rh(NCl)3,2.5806
RbUN3O11,2.5806
SrNb2Bi2O9,2.5807
Na6Ca2Ta4Si6(SO12)3,2.5807
CaGd2BeO5,2.5808000000000004
Li2FeSiO4,2.5809999999999995
Ca2As4Xe5F34,2.5812
Tl3PbI5,2.5812000000000004
Sr4Li2Ta2Al2N8O,2.5814
Y3I7O,2.5815
MnC5IO5,2.5815
Na5GdO4,2.5817
Na4TiGaSi2PO12,2.5818
Sr3Gd2(BO3)4,2.5819
Na10Ti8Si9(SO16)3,2.5819
NaTh3F13,2.582
K2V2CoO7,2.582
Tl4Fe(CN)6,2.5821
Li6TeO6,2.5821
LiVPO5,2.5822000000000003