formula,band_gap (MP)
Sr(H2O3)2,2.7961
Na10Sc4Ta4Si9(SO16)3,2.7961
FePO4,2.7961
Li5Sc2Fe3(SiO3)10,2.7961000000000005
CsGaO2,2.7962
NaSnGe(PO4)3,2.7963
Li3Cr2(PO4)3,2.7965
H6PbCNCl3,2.7966
RbReSO3,2.7968
H4CSN2,2.7968
Ba2La3Ti3NbO15,2.7971000000000004
VZn2HO5,2.7972
Li6TeO6,2.7973
Sr(GaS2)2,2.7974
Cs2NaNF6,2.7974
Cd3Pb2Se4(IO6)2,2.7977
Li6MnFe5(BO3)6,2.7977000000000003
LiCoPO4,2.7978
Na2GeTeO6,2.7979000000000003
KSb2PO8,2.7979000000000003
Na7Al3O8,2.7979000000000003
Rb4TiO4,2.798
Na3AlGe3(PO4)6,2.798
NaYGaP(SO6)2,2.798
Li3MnFe2(BO3)3,2.7981
MgNi2(PO4)2,2.7983
SrMgV2O7,2.7983
HfNiO3,2.7983
LiFeF3,2.7983
CsSi2N3,2.798300000000001
SiHg3(SF3)2,2.7984
BaMg6CrO8,2.7984000000000004
KNa2BO3,2.7985
Nb4Pb3(O6F)2,2.7985
GdMg(BO2)5,2.7985999999999995
MgPS3,2.7986
LiFe2OF3,2.7986
LaTiNbO6,2.7987
Rb2Pt(CN)4,2.7987
Pr5O9,2.7987
Hg2H10C3NCl5,2.7987
Na6La3NbSi2(PO6)4,2.7987
Na4Al3Si3NO14,2.7989
H5C8NO2,2.7989
Zr6Ag7F31,2.799
NaSbWO6,2.7991
Rb2LaI5,2.7991
TaH24C8N4Cl,2.7991
NaSmHf2O6,2.7992000000000004
CrP3H16C3NO12,2.7993
ZnCr4CoO8,2.7994
Li2Si2WO7,2.7995000000000005
Ta2Bi4O11,2.7997000000000005
Nd4Ti9O24,2.7998
CsTlF4,2.8001
Al4Bi2O9,2.8002
KFe3P8(H11O18)2,2.8003
Li4ScFe3(SiO3)8,2.8003
Sr5Nb4O15,2.8004
FeBP2H5NO9,2.8005
Li2CrPO4F,2.8006
H2Pb4SO8,2.8007
ScBiO3,2.8008
CrP(HO)5,2.8008
BaSrGdNbO6,2.801
MgVP2O7,2.801
LiGdO2,2.8011
Sr(GaO2)2,2.8011
Li3Cr2(PO4)3,2.8011
Li2Co(Si2O5)2,2.8011000000000004
AlVO4,2.8012
Ca4Al6CrO16,2.8012
LaAgO2,2.8013
V2Ni(H4O5)2,2.8013
Li2Co2(SO4)3,2.8014
CsMg30GaO32,2.8015
Ba3(YI6)2,2.8015
CsErO2,2.8015000000000003
Pb3WCl2O5,2.8016
SmH4(C3O4)2,2.8017000000000003
Sm2MgMo2(I4O15)2,2.8017000000000003
ZrSnP2SO12,2.8019
Na6Nb3Ga(SiO4)6,2.802
NaHO,2.802
MoH12N3O5F3,2.802
K3GaS3,2.8021
MnPH2CO6,2.8021
CsK2MoF6,2.8022
Na3La2In2P3(SO8)3,2.8022
LiCoBO3,2.8023
Ba4B2N4O,2.8024
RbCdAg3(CN)6,2.8025
TbInGe2O7,2.8026000000000004
MgMnF6,2.8029
RbCrH4(C2O5)2,2.8029
CoH15Br2(N3O)2,2.803
KMoCl4O,2.8031
Na2Ge2O5,2.8031
BaVSi2O7,2.8032
TbCrGeO5,2.8032000000000004
AgH2SNO3,2.8033
BaTi2O5,2.8033
Li2Co(SiO3)2,2.8033999999999994
Ba3V4O13,2.8034
NbCl3O,2.8034
La2TiNiO6,2.8034
Ba2NdMgSbO6,2.8038000000000003
KYSiS4,2.8038000000000003
K3NbP2O9,2.8040000000000003
TiTlWO5F,2.8041
CoH4SO6,2.8042
Cs2ScInCl6,2.8043
Cr2P4O13,2.8044999999999995
LiSn4(PO4)3,2.8044999999999995
Nd3NbO7,2.8046
NaZn2CdF7,2.8046
Li3Co3OF7,2.8048
SrLa3MgAlO8,2.8049
KCaPrWO6,2.8049
GdAsO4,2.8049
KBaPrWO6,2.8049
NaZnAsO4,2.805
K6CoMo5O19,2.805
CsBS2,2.8051
Pb3SO6,2.8051
Bi2Mo2O9,2.8052
Tl3PbBr5,2.8052
Mn2Tl2(MoO4)3,2.8053
Ga4Bi2O9,2.8053
BiBPbO4,2.8053000000000003
VOF3,2.8054
Li3Sn2(PO4)3,2.8054999999999994
FePO4,2.8055000000000003
LiFeSiO4,2.8055000000000003
Hg2P2H6O7,2.8056
Na7Li3V10O30,2.8056
Cu3As4H18C8Br3(NO2)2,2.8057000000000003
P4S3,2.8058
Mg14CoNiO16,2.805999999999999
BeZnO2,2.806
CSe(ClF)3,2.806
Na2Se2O7,2.8061
NdIn2Cl5,2.8061
Li2Ge7O15,2.8062
CuSn3H27C9NCl,2.8063
SrV2ZnO7,2.8063
Li3Cr(PO4)2,2.8064
HS7N,2.8065
Li2V(CO3)2,2.8065999999999995
Na3Ca2In2PS5O24,2.8066
Sr2TaCrO6,2.8066
Y(AgCl2)3,2.8066
VF5,2.8066000000000004
KPWCO7,2.8067
Ba3NaSbO6,2.8068
NaCa4TaTi4(SiO5)5,2.8068000000000004
TaPO5,2.8069
Rb2TlSbF6,2.807
Na9Li7V16O48,2.807
Gd3Si2BO10,2.807
Bi(IO3)3,2.807
K2MnF4,2.8070000000000004
Sr2TiP2O9,2.8073
LiMn4(PO4)3,2.8075999999999994
Rb2NiO2,2.8076
KCaGdWO6,2.8078000000000003
Bi5BrO7,2.808
Zn2BiPO6,2.8081
Li3Ni2SbO6,2.8084
NaSc3TaP3(SO8)3,2.8084
Mg2MnWO6,2.8085
BaMg6CoO8,2.8086999999999995
LiCoPO4,2.8088
Y3SbO7,2.8091000000000004
K2Zr(H2N)6,2.8092
Na4ZrTi(SiO4)3,2.8094
CsSmSiS4,2.8094
Cs2PbN2(ClO3)2,2.8095
Sc2TiO5,2.8095000000000003
KYMnWO6,2.8095000000000003
Nd4(SBr2)3,2.8096
Li2VPO6,2.8096
CsCrClO3,2.8096
Na6Mg3SnP4(SO12)2,2.8096000000000005
TaP2H27C9Cl2,2.8097000000000003
Tl2Te3O7,2.8098
MgFe2(BO3)2,2.8098
K2AlFeB2P4(HO9)2,2.8099
KCoAs3F18,2.8102
CrSiH12(OF)6,2.8104
H2C8SN3F5,2.8104
SnH12C6(S2N)2,2.8105
Tl2Te2O5,2.8109
NaPrTiNbO6F,2.811
Ho6MgWO12,2.811
BaHI,2.8111
Na5TiNb3(SiO4)6,2.8111
GdB2HO5,2.8111
Ta4SnO12,2.8111
Li2VF4,2.8111
Gd2TiO5,2.8111000000000006
LiGa(H2N)4,2.8113
AlFe2BO5,2.8114
Er2SiSO4,2.811400000000001
SmIn2Cl5,2.8115
Na5Li3V8O24,2.8115
Na4YTa3Si5SO24,2.8116000000000003
Na6Ta6Al2Si9(SO16)3,2.8117
GdYScSbO7,2.8117
MgTaP(SO6)2,2.8117
Na4NiMo6(H19O20)2,2.8117
GdAg(WO4)2,2.8117000000000005
MnSO4,2.8118
Ca2Nb2NiO8,2.8118000000000003
Mn2Hg(CO)10,2.8119
LiAs3H2O9,2.8119
TiTlAsO5,2.812
Mo2P2O11,2.8121
Rb2ZnGeO4,2.8121
NaMg30SbO32,2.8123
KBaPrWO6,2.8123000000000005
MgTiSiO5,2.8125
MgCrP2O7,2.8126
Ba3SiS5,2.8127
Lu6TeO12,2.8127000000000004
LiCoPO4,2.8127000000000004
K4V3S5O23,2.8128
BaCaI4,2.813
NdFeGe2O7,2.813
Na2HfSi2GeSO12,2.813
Mg14FeNiO16,2.8130000000000006
HgH3CSO3,2.8131
Er4Si2S3O7,2.8131999999999997
Ba2Sc2O5,2.8133000000000004
Cs3SrCu2C7(SN)7,2.8134
TiP2H4O9,2.8135
Sr2ZrO4,2.8135000000000003
LaY3Ti4O14,2.8136
NaV4Bi13O30,2.8136
NaCaGdWO6,2.8136
Na10Al4In4Si5S7O48,2.8138
Na6Ca6Zr2SiS11O48,2.8138
ZnSn2H12(OF)6,2.8139
Cs2PtF6,2.814
Na2Al4SiS5O24,2.814
LiNi2OF3,2.8141
Na3Ca3Ga(SO4)6,2.8141
Li2CaTa2O7,2.8142
NbTl2PO6,2.8142000000000005
CsHoO2,2.8143
RbTaV2O8,2.8144
La3SbO7,2.8144
Na8Ti2Ga2Si5SO24,2.8145
ReH12C4O5F,2.8145
Na4Hf2Ga2Si3(SO8)3,2.8145
LuScO3,2.8145
Na3AlH6,2.8145
KPrHf2O6,2.8145999999999995
Mn3Co4P6(HO6)4,2.8146000000000004
BaGd2O4,2.8146000000000004
LiVPO5,2.8149
NaInBr4,2.8149
KFeO2,2.8149
Na6Ca2Hf6Si5S7O48,2.8149
Fe3B7ClO13,2.8149000000000006
Li2Co(CO3)2,2.815
Ta2Pb2O7,2.8152
Mg4Te3Se,2.8152
SrMgFe2(SeO3)4,2.8153
Na2CoP2O7,2.8156
Li11Fe(WO4)7,2.8156
Na2CaHf3Si2(SO6)4,2.8157
KCd6H4C12ClO26,2.8157
NaMg2V3O10,2.8158
Ca5MnSi9(Pb3O11)3,2.8158
Li2MnSiO4,2.8158000000000003
H4NClO2,2.8159
Dy3NbO7,2.816
RbCrClO3,2.816
TcAsH2(OF5)2,2.8161
Na9Ca4Ta2(PO4)9,2.8161
Na5Zr2Si3Ge2(PO8)3,2.8163
KLaPrSbO6,2.8163
BaCaO2,2.8163000000000005
CaNi(GeO3)2,2.8164
Na4MgTaSi2PO12,2.8166999999999995
BaNaPrWO6,2.8167
LiNiPO4,2.8167000000000004
TeW2Se2S,2.8167000000000004
KBaGdWO6,2.8167000000000004
Bi2TeIClO8,2.8168
LiCoPO4,2.8169
In(PO3)3,2.817
Li2CoP2O7,2.817
Rb3Ge2Br7,2.8171000000000004
KCaPrWO6,2.8172
Rb2SbN2(O2F)3,2.8173
Na4GeO4,2.8173000000000004
Li2Co3(P2O7)2,2.8176
Na8Sc2Si5Ge2SO24,2.8176
K2V2P4O15,2.8177000000000003
LaScO3,2.8177000000000003
Li3Cr2(PO4)3,2.8178000000000005
LaH4C2SO8,2.818
Ba2LaMgSbO6,2.818
ThBr4,2.8181
Li6MnFe5(BO3)6,2.8181000000000003
Li2CoCSO7,2.8183
ZrMnO3,2.8184
Rb2LiGdCl6,2.8184
KFeBP2HO9,2.8184
Sb4O5F2,2.8185
SiGeO3,2.8185
Na3TiNb(SiO4)3,2.8185
Na4ScSi2SnPO12,2.8186
Li3Gd3(TeO6)2,2.8187
YVO4,2.8189
BaNaGdWO6,2.8189
Zn3Si12H78(C13O2)2,2.819
KBaNdWO6,2.8191000000000006
Na2LaGaSi(SO6)2,2.8192
InAs(H2O3)2,2.8192
SrLaFeSnO6,2.8193
RbNbO3,2.8197
Na4NbGa(SiO4)3,2.8199000000000005
B2Pb6SO12,2.82
Na10La4Ga4Si5S7O48,2.82
Sb5O7F,2.82
NdNb3O9,2.82
KZn4(BO3)3,2.8200000000000003
NaLaZrSi(SO6)2,2.8202000000000003
RbLiS,2.8204
Sb2IrC3O3F13,2.8205
TiNbHO5,2.8206
Mo(NO4)2,2.8207
TlSnF3,2.8207
VH10SO10,2.8208
Ta4InBi3O16,2.8208999999999995
LiNb(OF)2,2.8209
SrMg6CrO8,2.8209
Cr4(P2O7)3,2.8209000000000004
LiCoPO4,2.821
Co(ClO4)2,2.821
RbPbBr3,2.8211
MgMn2(PO4)2,2.8211000000000004
LiP3W2O13,2.8212
MgVP2O7,2.8212
Na4Ti2(SiO4)3,2.8214
Cr2CdH14(NO2)4,2.8216
Na6Mg4Ta2Si3(SO6)6,2.8216
NaCoPO4,2.8217
B10H13I,2.8217
Mg6SiCO8,2.8217
Cr2CdH14(NO2)4,2.8217
WCl2,2.8217000000000003
GaHO2,2.8219
Bi4BPO10,2.8219000000000003
CsSi2H18C6N,2.8221
Al2FeO4,2.8223000000000003
Li2Cr(PO3)4,2.8226
Mg4FeO5,2.8227
NaHO,2.8228
Rb2CN2,2.8228
NaLa2Ta2P5SO24,2.823
PRu4C15O14F3,2.823
Rb2Ti(WO4)3,2.8232
Li2MnSiO4,2.8232
CaPbI4,2.8233
NaCaGaSi2O7,2.8233
CsBiF6,2.8234
FeTe(PO4)2,2.8234
Na6Y3TaSi4(SO12)2,2.895
CaTeO3,2.895
Na8Mg2Al2Si3(SO8)3,2.8950000000000005
IO2F,2.8952
Na5Si3Sn4(PO8)3,2.8953
Mg30ZnCO32,2.8953
Na6Zr7ZnSi6(SO8)6,2.8953
Gd2TiO5,2.8953
CsNbWO6,2.8953
Ti2Si(H2O3)3,2.8953
Zr2Ti(PbO3)3,2.8953
AgH4C2S2N3,2.8954
Li4V(PO3)6,2.8955
Cs4GeO4,2.8955
Te3(PbO4)2,2.8956
Li4Co3P4O15,2.8956
RbTaCl6,2.8956
Nb2S3O14,2.8957
YFeF5,2.8958
ZnCrP2O7,2.8958000000000004
SrLaAlO4,2.895900000000001
AcGaO3,2.895900000000001
Na2SiSn2(PO6)2,2.8962
Li8Mn7Fe(BO3)8,2.8964
Ba2LaI7,2.8964
Ba2PrNbO6,2.8965
CsBaCr3F12,2.8965
Zr3Ti(PbO3)4,2.8966
Na5ZrNb3(SiO4)6,2.8966
CaHgH16(BrO2)4,2.8966000000000003
Sr2LuNbO6,2.8966000000000003
Cs3MnCl5,2.8966000000000003
Bi3NF6,2.8967
Li2MnPHO5,2.8968
AsSXeNF10,2.8969
Sr2DyNbO6,2.8969000000000005
Sc2TeO6,2.897
RbCrO3F,2.897
Na9Ta2Zn10P3(S5O24)3,2.8971
LiFeSi3O8,2.8971
Na5MoNO4,2.8972
Li6Mn5Fe(BO3)6,2.8972999999999995
Xe2NO2F13,2.8973000000000004
Ca3Si4(SnO7)2,2.8973999999999998
NaSrDyWO6,2.8974
LaGa(SO4)3,2.8976
K3AlO3,2.8977
HPbClO,2.8977
Rb2YAgF6,2.8977
VH16C7O6,2.8978
LiCr(GeO3)2,2.8978
NbO2F,2.898
Li5FeO3F,2.8981000000000003
SrSm2O4,2.8981000000000003
Ca2GeO4,2.8982
LiVF6,2.8982
Na15Mg4Ta8Si9(PO8)9,2.8982
Nd3AlSi5N10O,2.898299999999999
K3CoF6,2.8984
LiIn(CN2)2,2.8984
KNO3,2.8988
Nd2Te3MoO12,2.8989000000000003
KMnF3,2.8989000000000003
AgH6CSN3,2.8991
NiWO4,2.8991
Sn3(P2O7)2,2.8992
Ba2YI7,2.8993
Sc2Te5O13,2.8993999999999995
AgH12C4S2N5O3,2.8994
Na2TaInSi(PO6)2,2.8994
LiFeSi3O8,2.8995
K2TiAl(PO4)3,2.8995
Sr2SiS4,2.8995
LiCrP2O7,2.8998
RbTa3(TeO6)2,2.8998
Ge3(WO6)2,2.8999
Li4Mn3Fe(BO3)4,2.9000000000000004
Sr3NbGa3(SiO7)2,2.9001
BaLaBr5,2.9001
ErGaO3,2.9001
Na4V2O7,2.9002
Na2Y2B2TeO10,2.9002000000000003
LiNbZnO4,2.9004
Rb2NiH8(CO5)2,2.9004000000000003
Fe3B7IO13,2.9005
Ba2MgMo4(P2O7)4,2.9006
Gd3YO6,2.9007999999999994
SrBrCl,2.9008000000000003
Cd(BO2)2,2.901
CsW3I3Cl4,2.901
InTeBrO3,2.9011
InPbCl3,2.9011
Pb9(Br5O2)2,2.9011000000000005
Na5Al2SiGe2P5O24,2.9012
Tb2TiO5,2.9014
MgAs2(XeF9)2,2.9017
Li8Fe(O2F)2,2.9018
La2TiZnO6,2.9018
TaBiO4,2.9018
CaTiSiO5,2.902
CaCoF4,2.9021
Na6Mo11O36,2.9021
AgClO3,2.9022
Te2MoW3(SeS2)2,2.9022
DyAgH2C2SO9,2.9023
BaLa7Mg5Nb3O24,2.902300000000001
Ta2Zn4O9,2.9024
Te7(OF5)6,2.9024
CaH36W6C12S6O25,2.9025
Na5Nb3Si6SnO24,2.9025
Li2Co3(P2O7)2,2.9026
KGeBr3,2.9026
Li8Mn7Fe(BO3)8,2.9028
Na14Zn4Ga4Si5S7O48,2.9028
CsOsNO3,2.9029
Na3Mg2Ta2P5SO24,2.9033
KVMoO6,2.9033
Nd2Ti2O7,2.9034
LiNbZnO4,2.9034
Se2O5,2.9034
LiCoPO4,2.9034
MnInF3,2.9035
Tl3AsF6,2.9036
Na12TaZn5(PO4)9,2.9036
NaTiAsO5,2.9036
Cs2CaAl4(SiO4)4,2.9038
Na2Hf4Mg4SiS11O48,2.9039
Li2Ti(BO3)2,2.9039
CaMg30CO32,2.904
BaMg30CO32,2.904
BaNb2O6,2.9041
Cs2CeAgCl6,2.9041
Rb2NaGaCl6,2.9042
La3Zn3Ge2SbO14,2.9042000000000003
Gd3Ga5O12,2.9042000000000003
Na2HfSi2SnSO12,2.9043
YGaO3,2.9043
Te2MoWSe2,2.9044
Ta2H4O7,2.9044
Li3Si2Bi3O10,2.9044
CsFeH24(SeO10)2,2.9045
K2CdN12,2.9045
NaHO,2.9045
BiOF,2.9045999999999994
Na2CaV4O12,2.9046
MgFe2(BO3)2,2.9047
LaVO4,2.9047
SiO2,2.9048
ZnH14C2(NO)12,2.9048
Gd4B4O11F2,2.905
AlInI4,2.9051
Na3ZnGaP2SO12,2.9051
K4HfO4,2.9052
Li8Mn7Fe(BO3)8,2.9053000000000004
ZnFe(SiO3)2,2.9054
CdSe2O5,2.9054
Ba2TbNbO6,2.9054
TbAgH2C2SO9,2.9054
Li4AlCr3O8,2.9055
LiFe2OF3,2.9055
Pr3Ga5O12,2.9055000000000004
KBaLaWO6,2.9056
Cs2TlFeF6,2.9057
Ba2SrI6,2.9057
TiCdO3,2.9057000000000004
K2AgI3,2.906
NaCaB5H16O17,2.9061
CsKAu2,2.9062
Sr3LaBr9,2.9062
Ge(BrF5)2,2.9063
Na6Mg4Ta2P6(SO12)3,2.9063
LiFeF4,2.9063
Li3Cr2(PO4)3,2.9063000000000003
PbSe2O5,2.9065
Na2LiGdCl6,2.9065000000000003
Ca5Si2HO9F,2.9067000000000003
Nd3S2Cl5,2.907
Li3Bi3(PO4)4,2.9071
HoCrGeO5,2.9071
Ba2YNbO6,2.9072000000000005
Ba(GaS2)2,2.9073
Ba2SmNbO6,2.9075
CsLu(MoO4)2,2.9075
KRe4O8F13,2.9076
Na2InGaSi(SO6)2,2.9076000000000004
LaWClO4,2.9077
ErTl(WO4)2,2.9077
CsTaCl6,2.9077
CaTi2O5,2.9078
Ca3MnO4,2.908
VF5,2.9081
Ba4Nb2O9,2.9081
Na12Ta2Zn4Si3(PO6)6,2.9082
Cs2Nb4O11,2.9082
CsPbF3,2.908300000000001
LiSi6Bi9O26,2.9084000000000003
Mo2H12C4N2O15,2.9085
Cs6Ge2O7,2.9085
ReH(CO)4,2.9087
YbH2,2.9088
K3Ta3Si2O13,2.9089
KNiPO4,2.909
Ca8MgAl6Si5O28,2.9092
Na3AlSn3(PO4)6,2.9092
Ba2Ta2O7,2.9092
Ca2CoSi4NiO12,2.9093000000000004
NaSr3SbO6,2.9095
Li2Fe5F17,2.9095
Tl2CO3,2.9095000000000004
Li8Mn3Fe5(BO3)8,2.9096
Sr2Ta2O7,2.9098000000000006
KLiGd2(MoO4)4,2.9099
Na6LaNb3(SiO4)6,2.9099
HfFeO3,2.9099000000000004
Na3AlS3,2.91
SrSn2H10Br6O5,2.9101
Ba3GeO5,2.9102
CoPH6NO5,2.910200000000001
Pb4IF7,2.9103000000000003
ErAg(WO4)2,2.9104
ZnN6,2.9104
VH6CNO3,2.9104
CsAl(H2N)4,2.9105
Ca2GdSbO6,2.9106
Rb3CoF6,2.9106
H14Pb6C8O13,2.911
LiMg6BO7,2.911
Ca(SeO3)2,2.911
Sr3Pr10Al12Si18(N2O)18,2.9111
CsHoSiS4,2.9111
Sn4P2O9,2.9112
SmSbMo2O9,2.9114
Co2H22C(N2O3)4,2.9117
B9H11,2.9118
K4ZrO4,2.9118
NaCoPO4,2.9119
LiFe4(PO4)3,2.9119
Cs3CoF6,2.912
Ba2YI7,2.9121
Li7Cr4P9O32,2.912100000000001
ZrH8Pb(C3O8)2,2.9122000000000003
Nd3GdAl4O12,2.9123
K4P4H6WO14,2.9123
LiFeBO3,2.9124000000000003
LiCoPO4,2.9125
NaNb(OF)2,2.9126
K2CoH12(SeO7)2,2.9128
Na2TiZn2SiO7,2.9128
Al2CdBr8,2.9128
Na2TaGa3P4(SO12)2,2.9128
Fe(PO3)3,2.9129
K4Mo5H4Se2O23,2.913
YAl6Si30(N15O)3,2.913000000000001
Rb2V2Si8O21,2.9133
Na9Mg2Ta4Si6(PO12)3,2.9134
MgCrP2O7,2.9136
Sr3B3N5,2.9137000000000004
NaLaScNbO6,2.9138
Li5SbO5,2.914
Cs2YbH4,2.9142
Sr5(Ga3O7)2,2.9142
Na6Hf4Sc4Si5S7O48,2.9142
CdH10(C2O3)4,2.9143
Dy2WO6,2.9144
VZnHPbO5,2.9144
Ca5Ti3NbAl(SiO5)5,2.9144000000000005
Ca3SiO5,2.9146
Ti3ZnO7,2.9147
NaCaMgCr(SiO3)4,2.9148
Na2Hf2Mg2SiS5O24,2.9148
Na2BeSiO4,2.9149
Rb2LiBiBr6,2.9149
NaCa9TaTi9(SiO5)10,2.9149
Ca2YSbO5,2.9151
Li2Fe2Si2O7,2.9152
Li3MoF6,2.9152
BaC2,2.9153
ErGaO3,2.9153
Mg30MnNiO32,2.915399999999999
Cs2LiBiBr6,2.9154
CsSnCl3,2.9154
KMo4AsO15,2.9155
Na2Li3FeO4,2.9156
CNO2,2.9157
Li2CoH8(CO5)2,2.9158000000000004
FeGe3H4PbO10,2.9159999999999995
RePbBrO4,2.916
Gd2HfO5,2.9160000000000004
CsW3Cl7,2.9161
Li6Ni11(OF12)2,2.9162
SrLa2Al2O7,2.9162
Y2Mo(SeO4)3,2.9162000000000003
Na10Mg4Zr4Si5S7O48,2.9163
RbH,2.9163
NaCa8SmTi10(SiO5)10,2.9163
Na6Al4Fe(Si4O13)2,2.9163
Sr10Sm6Al6Si30N54O7,2.916300000000001
Na6YNb3(SiO4)6,2.9164
Li2SiNiO4,2.9164000000000003
La4S3NCl3,2.9165
Sm2SO2,2.9166000000000003
K3CoPCO7,2.9167
Na2Ti6O13,2.9167
Ca2LaSbO6,2.9168000000000003
C4NCl2,2.9168000000000003
C3N4,2.9168000000000003
Sr2TaCrO6,2.9169
MgMn2(PO4)2,2.9169000000000005
DyTl(WO4)2,2.9171
La2Ti2O7,2.9171000000000005
Al3P3H7O12,2.9172
Li2Fe3F8,2.9172
H2CO2,2.9173
NaCdPO4,2.9173
Sr5V3H6(O3F8)2,2.9173
CaMn4(SiO3)5,2.9173000000000004
LiFe3P3(HO6)2,2.9174
K2LiBiBr6,2.9174
Li2Fe(SiO3)2,2.9174
Li4AlCr3O8,2.9174
Sn3IF5,2.9176
KCoH3(CO2)3,2.9178
NaMg30WO32,2.9178999999999995
Gd2(MoO4)3,2.9179
BaNaLaWO6,2.9179
BaNaPrWO6,2.918
MnH12N8O15,2.9181
CsSbTe6(OF5)6,2.9182
BCl2,2.9183
La4Ti3O12,2.918399999999999
Na3V2PO9,2.9184
In2(TeO3)3,2.9185
Cs2GdCl5,2.9185
Na14La4Ga4Si7S5O48,2.9186
KCaLaWO6,2.9186
LaTaTiO6,2.9188
K2FeF5,2.9191
Na2LiBiBr6,2.9192
CaMgS2,2.9192
H16PdC4(N5O)2,2.9193
Li2Fe3F8,2.9193
Tb2WO6,2.9194
Sn3BrF5,2.9195
Ba2NdNbO6,2.9195
Rb4Mo5H4Se2O23,2.9196
BaNaNdWO6,2.9197000000000006
Li3Gd(BO3)2,2.9198
Sr3V3BiO12,2.9198000000000004
CaCrH2O5,2.9199
NaTl2MoF6,2.9199
Tl5SnF9,2.9199
Na6Nb3In(SiO4)6,2.9199999999999995
BaNaSmWO6,2.92
H4Pb(CO3)2,2.9201
Li2MnFe(BO3)2,2.9201000000000006
K2NaGaCl6,2.9202
TaZnBiO5,2.9202000000000004
BaSiN2,2.9202000000000004
Na10Ta4Ga4Si9(SO16)3,2.9204
Mg2TePb4WO12,2.9206000000000003
LuAl3(PbO4)2,2.9207
Na2Mg5Zr3(SO4)12,2.9207
K2RbMn2F7,2.9207
KB2SbO6,2.9208000000000007
Na2Ca3Hf(SO4)6,2.921
BP2N2Cl7,2.9211
Cs3AsBr6,2.9211
LiFeBO3,2.9212
NaCa4Ti4Nb(SiO5)5,2.9214
CaAlH5,2.9215
Ca3Ga2Si(SnO6)2,2.9215
VOF3,2.9217
CsMg30BiO32,2.9218
LiZnAsO4,2.9218
Li2VP2O7,2.9218999999999995
Li2MnF6,2.922
TmGaO3,2.922
Li4Mn3Fe(BO3)4,2.922
NdBr3,2.9221
Tb4Mg(WO6)2,2.9222999999999995
BaYI5,2.9223000000000003
MgAlNF6,2.9224
Al(SiO3)2,2.9224
Na2LiSbCl6,2.9225000000000003
CsK2AsBr6,2.9226
Pr3Nb(Cl3O2)2,2.9226
BaZr5Pb4O15,2.9226000000000005
PbCClO2,2.9227000000000003
Ba6Mn2Zn(ClF2)6,2.9227000000000003
Ba2Ta2O7,2.9228999999999994
K2Mg2O3,2.923
Hf2In2SiS5O24,2.9231
Sr3TeO6,2.9231
Ba3Ga4O9,2.9232
KCrF4,2.9232
LiVF6,2.9233
Rb3Ti4Tl(PO5)4,2.9233
RbCr(SO4)2,2.9234
Al2NiO4,2.923400000000001
CsRb2AsBr6,2.9235
Sr3Nd4O9,2.9235999999999995
LiSn2(PO4)3,2.9236
Li2FeSiO4,2.9237
Cs2TlCoF6,2.9239
Co2Hg(CO)8,2.9240000000000004
BaMoSeO6,2.9241
Li2CoP2O7,2.9241
Bi7(O2F3)3,2.9241000000000006
C2S7Cl6,2.9242
Rb4WO5,2.9242
Li8Sc5Fe3(SiO3)16,2.9243
Li5NbO5,2.9243
Na2TaInSi2SO12,2.9246
Li2Co(PO3)4,2.9247
Na15Re7N19,2.9248
LiCoPO4,2.9248000000000003
LiMn5P3O13,2.9249
RbOsNO3,2.9249
Na7TaSi6(GeO8)3,2.9249
AgClO3,2.925
S3N3Cl3O,2.925
Na2NbSi2GePO12,2.9252
TaIn3P2(SO6)4,2.9253
Er2TiO5,2.9253
BaLu2O4,2.9254
VBiPbO5,2.9255
MgCoP2O7,2.9255000000000004
NaNbWO6,2.9255000000000004
GdOF,2.9256
Ge7H8N2O15,2.9257
Li2AlFeO4,2.9257
K2AlInCl6,2.9258
ThBr4,2.9258
MgVP2O7,2.926
NaGaSnP2SO12,2.9263000000000003
Li3Sb2(PO4)3,2.9263000000000003
Na3Si2Sn2PO12,2.9264
Ti3H2O7,2.9264
La3Pb3I13O40,2.926400000000001
Ca2BN2F,2.9265
CsYbH3,2.9265
Co3As2(HO)16,2.9265000000000003
Na2Co3H10(SO6)3,2.9265000000000003
LaBr3,2.9266
CaNdAlO4,2.9266000000000005
La2ZnSnO6,2.9267000000000003
NaCdPO4,2.9268
Ca2NiWO6,2.9269
CaZnSnWO6,2.927
K2WO8,2.927
RbAu(CN)2,2.9271000000000003
LiFeF4,2.9272
RbInBr4,2.9272
Li4Mg(HN)3,2.9272
Sb2(SO4)3,2.9272
Na6La4Zr4Si5S7O48,2.9273
La2TeO6,2.9273000000000007
MnH11C5NO6,2.9274
Na2ZrSiGe(PO6)2,2.9274999999999998
RbNa2BO3,2.9275
HoTl(WO4)2,2.9276
Mg14CrBO16,2.9276
Na3YTa3Si3(PO8)3,2.9277
LaSb5O12,2.9277
TbSBr,2.9277
Na3Ca2Ga2PS5O24,2.9277
MoPb2O5,2.9278
Na3LaTa3Si3(PO8)3,2.9278000000000004
Ge2Pb5SO12,2.9279
NaCaMgFe(SiO3)4,2.9279
Na10La6Ta2Si7S5O48,2.9281
CsSmO2,2.9281000000000006
Mg(C4N3)2,2.9284
Nb2Ni4O9,2.9285
In3AsF6,2.9287
Rb3Ni2(NO3)7,2.9288
InGaBr4,2.9288
LiFeF4,2.9288000000000003
Sb6O5F8,2.9289
GdH12(ClO2)3,2.9290000000000003
RbAg(PO3)2,2.9292
VBiPbO5,2.9292
Li6Fe9(PO4)8,2.9293
NaY2Ta2P5SO24,2.9294
K3V3(BiO6)2,2.9294
Te6Cl2O11,2.9294999999999995
Te4Mo3WSe4,2.9295
Tl2Co2(SO4)3,2.9296999999999995
Rb3Sc2Br9,2.9296999999999995
PWO4,2.9297
K2FeP2H3(O4F)2,2.9297
Pb3SO6,2.9298
Zn3As2(H2O3)4,2.9298
Na3Mg2Ta10Si3(P5O24)3,2.9299
KCrO2,2.9299000000000004
RbNbWO6,2.93
KVH6SO9,2.93
Li8Mn7Fe(BO3)8,2.9300999999999995
Mg3FeO4,2.9302
Y4Ti3SnO14,2.9302
NaGdH2S2O9,2.9303000000000003
LiTeH5O6,2.9304
SnH8C2Br3N,2.9304
Na3NbSi3GeO12,2.9308
NaTa4Bi5O18,2.9309000000000003
Li8MnFe7(BO3)8,2.9311
Rb2H4Pd,2.9313
Al2FeO4,2.9315
K2Sr(Ge4O9)2,2.9315
PbWO4,2.9315
NbTlWO6,2.9315999999999995
CsDySiS4,2.9319
MgGe4(BiO6)2,2.9319
Tl2C3O4,2.932
LaTi2Al9O19,2.9322
CsLaO2,2.9322
Mg30MnFeO32,2.932200000000001
Na6Mg4In4SiS11O48,2.9324
Ag2B8O13,2.9324
Te4Mo(OF4)5,2.9326
Ca3Ni3(AsO4)4,2.9327
Na2LiInCl6,2.9328
GeBr4,2.9329
ErSCl,2.9329
Ca2NiWO6,2.9330000000000003
NaSn2Cl5,2.9330000000000003
Pr2TeO6,2.9331
CaFe3(SiO3)4,2.9331000000000005
BaSrV4(NiO4)4,2.9332
Fe3C10SO10,2.9332000000000003
CaZrTi2O7,2.9332000000000003
NaAl3Tl2(SiO4)3,2.9332000000000003
MgCd3(CO3)4,2.9333
Li2ScFe(SiO3)4,2.9333000000000005
Y7Ta3O18,2.9334
HfNb(PO4)3,2.9335
LiFePO4,2.9335
LiCoPO4,2.9335
LiP3W2O13,2.9335
Ba3CuP2Br3O7,2.9335
Na2Te2O5,2.9336
Li2CoSiO4,2.9336
H8C3(NO)3,2.9337
BaMg14CuO16,2.9338999999999995
K2LiSbCl6,2.9339
LiFePO4,2.9339000000000004
SrZnCo(PO4)2,2.934
Cu2H5C3N3O5,2.9341
Li4MnFe3(BO3)4,2.9341000000000004
SrMoAsH3O8,2.9342
Na2Ho2B2TeO10,2.9344
B10H13CSN,2.9344
Li2Fe2(CO3)3,2.9344
Zr(IO3)4,2.9348000000000005
NaMg6MnO8,2.9349000000000007
K2Ge2O5,2.935
CsTiAsO5,2.9353
Mg6MnZnO8,2.9353
Na10Zr4Zn4Si5S7O48,2.9353
Sr3Zn3Te(PO7)2,2.9354000000000005
RbNaMo3O10,2.9355
CS2NF5,2.9355
LiVF6,2.9357
Te4MoW,2.9357
Li3Bi(BO3)2,2.9357
Na2Hf6Mg2Si3(S3O16)3,2.9357
Sb4IrC5ClO5F22,2.9357
LiH(CO2)2,2.9357
Na9Ca2Ta4Si6(PO12)3,2.9357999999999995
Er2Zr2O7,2.9358000000000004
Sb5O7F,2.9358000000000004
GdTl(MoO4)2,2.9359
Li3Sn2(PO4)3,2.936
Li8Mn3Fe5(BO3)8,2.9364
Li4MnFe3(BO3)4,2.9364000000000003
Li2Fe4Si4O13,2.9365
CsNdO2,2.9366000000000003
Os4C13S2O13,2.9367
LiMg6MnO8,2.9369
Na3VB6O13,2.9370000000000003
YTl(WO4)2,2.9371
Li3AlN2,2.9371
ZrP2H4O9,2.9371
Na6CaZr7Si6(SO8)6,2.9371
LiVP4(H2O3)6,2.9371
Tl2ZnI4,2.9371000000000005
RbMg6GaO8,2.9374
Cs7Cd3Br13,2.9374
Na3AlSiGe(PO6)2,2.9376
Na2Y4Al4SiS11O48,2.9376
Li2AlFeO4,2.9377
KBaLaWO6,2.9378
Na8Sc2Si5Sn2SO24,2.9378
BaCaI4,2.9378
Li2Ti4Ni(PO5)4,2.9379
KNa3H4,2.9379
LiFe(PO3)4,2.938
Na6Zr2Si5Sn2SO24,2.9380000000000006
Ca4ZrTi3(SiO5)4,2.9380999999999995
Nb2Si(PO6)2,2.9381
Li2Mn3F8,2.9381
Pb3SO6,2.9382
Cs2H4Pd,2.9382
K2LiPrI6,2.9382
LiFe4(PO4)3,2.9382000000000006
GdHSO5,2.9383
Ca3(HO3)2,2.9383
H(CO)2,2.9384
KNO3,2.9384
RbMg14WO16,2.9384
Tb2Te4O11,2.9384999999999994
MnC5ClO5,2.9387
NbBiO4,2.9388
YV2BiO8,2.939
Li2Fe3F8,2.9391000000000003
CaGd2Zr(GaO3)4,2.9392000000000005
Sr3Ta6(Si2O13)2,2.9393
Rb2TeH6SO10,2.9394