formula,band_gap (MP)
Li2AlVO4,1.3213999999999997
Na4Sr2TiP4,1.3214
V6O7F5,1.3214
Pd(XeF8)2,1.3215
LiVPO5,1.3217
Li4Co2OF7,1.3217
Li9Mn2Co5O16,1.3217000000000003
MgTiV4CoO12,1.3218
DyP3H5O6,1.3218
CaNd2Ti2Mn2O12,1.3218000000000003
Li2MnCrO4,1.3218999999999994
CaSi2WO6,1.3219000000000003
YV(SeO4)2,1.3221999999999996
KPrMnWO6,1.3222999999999998
Sr5(AuO4)2,1.3224
Nb2Se17Cl12,1.3224
CuBi(WO4)2,1.3224999999999998
MnZnO3,1.3225000000000002
AgPS3,1.3228
NaV5O8,1.3228
Sr2CeNiO6,1.3228999999999995
Li5MnO3F,1.3229000000000002
MgFe6Sb10(IO3)6,1.3230000000000004
Na6Mg4Ta8Si9(SO8)9,1.3231
Li3CoO2F,1.3231000000000002
LiMnF4,1.3232
Nd4Se3O4,1.3232999999999997
BaFe2PbO5,1.3233
La2MgFe2(TeO6)2,1.3233000000000006
Cs3As11,1.3234
ZnCrFeO4,1.3234
NaV3F10,1.3235
Li6Cr2O7,1.3235
BrCl,1.3235
LiCoSiO4,1.3236
Na2Ti2Zn2SiS5O24,1.3239999999999998
O2,1.3241
Al15Fe9O32,1.3242000000000005
Sr4SiP4,1.3242999999999996
Rb2BiAuF6,1.3242999999999998
ZnMoO6,1.3243
ErSF,1.3243999999999998
W3C7NCl6O7,1.3245
CsSi2Mo3P6O25,1.3245000000000002
K3MnO3,1.3245000000000002
Cd(CoO2)2,1.3245999999999998
NdTiCrO5,1.3246000000000002
SrLaDySnO6,1.3247
Ba5V5O14,1.3248999999999995
Pd(SeBr3)2,1.3249
C3NCl,1.3250000000000002
PtN2,1.3251
Na4Ce(As2O7)2,1.3252
TeAs(SeF3)2,1.3252
Mn2CrO4,1.3253
V3OF11,1.3253
Ti2Fe4O9,1.3253000000000004
Zr(TlSe)4,1.3253999999999997
VP2O7,1.3254
MgV2(OF)3,1.3254
Fe21HO32,1.3254
LaMnZnFeO6,1.3254
Mg6CoCO8,1.3255
CrPO4,1.3256
V2Co2Se2O11,1.3256
K2RbGdMgV2O8,1.3256
Li2MnV(PO4)3,1.3257
NaLaNb4O12,1.3258
Na4Mg(FeO2)4,1.3258
Mn(Ni9O10)2,1.3259
EuI2,1.3259000000000003
Na2MgFe4O7,1.3259999999999996
Li4Ca3Nb6O20,1.3259999999999998
Li4V3Ni2Sn3O16,1.326
Mg14SnCO16,1.3260999999999994
Re3(SBr)7,1.3261
La4Se3O4,1.3261000000000005
MgV2O4,1.3261000000000005
Cs3AuO,1.3261000000000005
Li2VO3,1.3261000000000005
Ba3P2(SeO)4,1.3262
Li4Nb2Fe3Sn3O16,1.3262999999999998
LiScVO4,1.3262999999999998
V3OF11,1.3264
RbInBr3,1.3264
Li4Mn2Fe(BO3)4,1.3266
LiCrBO3,1.3266
AgP(XeF5)2,1.3266
TbBi2IO4,1.3266999999999998
CaV2O4,1.3266999999999998
NaHg2Au,1.3268999999999995
Li3As7,1.3268999999999995
Li2CuPO4,1.327
MgV4O7F5,1.327
GaBiN2,1.3270999999999995
Mo3Se2ClO8,1.3271
K2AlAuF6,1.3271000000000002
Li7Mn2(CoO4)3,1.3271000000000002
MgTl2Pb16(Br9O4)2,1.3271000000000002
Hg3(SeBr)2,1.3272
V3OF11,1.3272999999999997
LiVCr(P2O7)2,1.3273
Li7W5O16,1.3274
Ag2PHO4,1.3274
TiMnO3,1.3274000000000004
MgFe4(PO4)4,1.3274000000000004
NaCaNb3(BiO6)2,1.3275
VSnO4,1.3275000000000006
Ca(SbO3)2,1.3276000000000003
MgTiFeO4,1.3276999999999997
Li10Si(PSe6)2,1.3277
Al(SeCl2)2,1.3277
Li5V2Ni3O10,1.3277
Mg30AlNiO32,1.3278000000000008
Dy2Te3Se,1.3279
Mg14FeCoO16,1.3279999999999994
Lu9B5S21,1.3279999999999994
RbTa(CuTe2)2,1.3279999999999998
Na2Al4Si3Ge4(S3O16)3,1.3280999999999996
Y3Mg(PO4)3,1.3281
ZnCdS2,1.3281
Mg2TaMnO6,1.3282000000000005
Li4V3Cr2Sn3O16,1.3282000000000005
BaYAgSe3,1.3282000000000005
Na2SnSe3,1.3282999999999998
Cs5FeO4,1.3283
YBi2NO7,1.3283999999999998
TaTiFeO6,1.3284000000000002
Mg4ZrN4,1.3285999999999998
Ca2Pr2O5,1.3285999999999998
Sb2(PSe3)3,1.3285999999999998
Li3Co4WO8,1.3286999999999995
V3OF11,1.3287
MgV4O7F5,1.3288
BaAg2(HgO2)2,1.3289
CaCrAs2O7,1.3289
Na3AsH18Se4O9,1.329
DyBi2BrO4,1.3290000000000002
Li3TiV3O8,1.3290000000000002
Li5V5(CoO6)2,1.3290000000000006
La2MgSe4,1.3291
Na2Mg(NiO2)2,1.3291
ScMo3O8,1.3291000000000004
Li2VOF4,1.3292000000000002
Bi19(S9Br)3,1.3293
CsFeCl4,1.3293
CaV4(PO5)4,1.3294
In2AsP,1.3294999999999997
Li6V3P8O29,1.3295
AlFeO3,1.3295000000000003
NaMgFe5O8,1.3295000000000003
K2Na3TlO4,1.3295999999999997
Mg2PbO4,1.3297999999999996
CaMnSnWO6,1.3297999999999996
Na10Ti4Zn4Si5S7O48,1.3298
MgV2In2O8,1.3298000000000003
Li9Mn2Co5O16,1.3299000000000003
BaPt2S3,1.3299999999999996
Na2Nb4Al4Si5S7O48,1.3302
LiBe2Au,1.3302
LiCuS,1.3302
Ba2ZnCuBi2F14,1.3302
Al4InAgS8,1.3302999999999994
NaAuC2,1.3302999999999998
MgCr2F12,1.3303999999999998
MgFe6(OF)6,1.3304
Ho2MgSe4,1.3304
KErTe2,1.3304000000000005
Ba4MgMn4(P2O7)4,1.3304999999999998
As(IF2)3,1.3305
MgCo2(SbO4)2,1.3305000000000002
Fe4OF7,1.3306000000000002
InOF,1.3306999999999998
MgV3CoO8,1.3307
CaCoF6,1.3308
Li4Nb2Co3Sn3O16,1.3308999999999995
Si,1.3309000000000006
InGaSe3,1.331
LiCoGeO4,1.3311
Li6V3P8O29,1.3312
TiMn3Te2(PO4)6,1.3313
Na2Sc3Nb5Si6(SO8)6,1.3314
Te4MoW3Se4,1.3314
Rb2(ReS2)3,1.3314
MnBO3,1.3314
Te2Mo3W(Se2S)2,1.3314000000000004
K2O,1.3316
Ca2MgN2,1.3316999999999997
Na5Ca3GeP3(SO8)3,1.3316999999999997
Rb3SbSe4,1.3317
Sr4(NiO3)3,1.3317
SiAg2S3,1.3317
V4Zn(PO4)6,1.3319
Sr2HoMoO6,1.332
CoAgO2,1.332
VN2(Cl3O)2,1.332
LiZn2Ag,1.3320000000000003
Na6Nb2Ga6Si5S7O48,1.3320999999999998
ZnBiSbO5,1.3321999999999998
Pr6Ge3S14,1.3322000000000005
Rb2VAgS4,1.3323
Ga3Te3Cl,1.3323000000000005
HgI2,1.3324
ZnH10C2(Se2N)2,1.3324
TiCo3O8,1.3324
Na6Zn6SiGe2S11O48,1.3325
MnZnAu2,1.3325000000000005
Cs2Pt3Se4,1.3326000000000002
Sr2YAlCr2O7,1.3326000000000002
Na9CaFe10(SiO3)20,1.3327
Mo2N2O7,1.3327
Ba8Bi4O17,1.3327
LiSb(TeO4)3,1.3328000000000002
Mg30VCO32,1.3328999999999995
SbO2F,1.3329
CsGe,1.3329
Ba2B4Se13,1.3329999999999995
Bi2Te4Cl7,1.333
NaMnPCO7,1.333
Ti(FeO2)3,1.3331000000000004
Ca3UN4,1.3332999999999997
PAuCl8,1.3333
MgFe4(OF)4,1.3333
CsBaVS4,1.3334
MgCu2(WO4)2,1.3334999999999997
CaMoO3,1.3335
K7NaGe8,1.3336
NbAgO3,1.3336
MgV2Pb3O8,1.3336999999999994
LiFe8(OF)8,1.3337
Sr2NbCoO6,1.3338
Li3V4P9O32,1.3339
MgTl4V4(TeO5)4,1.3339000000000003
Zn(BiO2)2,1.3339000000000003
TiSiAg2O5,1.334
Ba4LaTi4CrO15,1.3340000000000003
Li2VO2F,1.3341999999999996
BaSbSe2F,1.3342999999999998
NaWO2,1.3344
Na4(Fe2O3)5,1.3345000000000002
RbMnCl3,1.3345000000000002
Na2Nb5In3Si6(SO8)6,1.3345000000000002
Mg2Ta2SiS5O24,1.3346
Na3NiO2,1.3346999999999998
LiV4OF11,1.3346999999999998
Li2MnV(PO4)3,1.3347
Li7V4O11F,1.3348999999999998
Y2MgS4,1.3349000000000002
Na4SeO5,1.3349000000000002
Ca5(CN3)2,1.335
Mg(MoO2)2,1.3350999999999995
Al7Te10,1.3350999999999995
CdHg2SO6,1.3352
GdTi2CdO6F,1.3352000000000004
Li2V(OF)2,1.3353000000000002
Lu2Se3,1.3355
Li5Fe4(P2O7)4,1.3356
V2FeO6,1.3356999999999997
NaPrNb4O12,1.3357
KLaCeNiO6,1.3357
ZnC2S2(OF)2,1.3358
Fe2(PO3)5,1.3358000000000003
CrAgO4,1.336
V2ZnO6,1.336
BaSrNb4O12,1.336
NaV2O5,1.336
LaSeCl,1.3360000000000003
MoS2,1.3361
LiVCr(P2O7)2,1.3361999999999998
MnZn3(FeO2)8,1.3361999999999998
SrTaNO2,1.3361999999999998
Li2Fe3SbO8,1.3362000000000005
RbF2,1.3362999999999996
V4NO10,1.3364
Ca3Fe2(ReO6)2,1.3365
HgP2PdO7,1.3365000000000002
Sr3(AlP2)2,1.3365000000000005
KAg3S2,1.3365999999999998
CsPrHgSe3,1.3367
K3Na2SnP3,1.3368000000000002
Sm4S3N2,1.3368000000000002
MoWS4,1.3369
MgTiV4FeO12,1.3369999999999995
Sr2MgCrO4,1.3370000000000006
La3Si(Mo2O7)2,1.3370999999999995
Na4Cr2C4SO16,1.3371
Li2AgF3,1.3372
Mg2NbN3,1.3373999999999997
Sr9(NiO3)7,1.3374
Mg2Mn2(SiO4)3,1.3374
La3S3N,1.3375000000000004
Te4MoW3Se4,1.3376
Hf(TlSe)4,1.3377
Li3VFe3O8,1.3377999999999997
Li3Mn5Cr3O16,1.3378
MgMn2V2O7,1.338
Sr(GdS2)2,1.3381999999999996
La2CuS4,1.3382000000000005
MoP2O7,1.3383
Li2Cr(Si2O5)3,1.3383999999999998
Pd(Se4Cl)2,1.3384999999999998
Ba2Re6S11,1.3384999999999998
K2MnH2OF5,1.3384999999999998
LiZnP,1.3386
K3NaMgCr2O8,1.3387
Ho2MgS4,1.3388999999999998
La2MgTiZnO6,1.3390999999999993
V2Zn3(P2O9)2,1.3392
MgNi(TeO3)4,1.3392
LiC2NO6,1.3392000000000002
Mn2FeSbO6,1.3392999999999995
Na2U2O7,1.3392999999999995
YTe(WO4)2,1.3395
TaBi4ClO8,1.3395
Fe2OF3,1.3398
Li2TiFeO4,1.3399
MgV4O7F5,1.3399
YBi2BrO4,1.34
CaFe6(OF2)4,1.3400999999999998
LiMnPO5,1.3401
Ba(FeO2)2,1.3402
Tb3In5S12,1.3402000000000005
Mg(SnO2)2,1.3402000000000005
Li5V3P8O29,1.3402999999999998
SrLaCoO4,1.3403
Mg6CuSiO8,1.340300000000001
NaNdNb4O12,1.3404
Rb2In4O7,1.3406999999999996
MgU(PbO3)2,1.3407
K2RuI5NO,1.3407
V2FeAgO7,1.3407999999999998
Ca2Ta10Si9(SO8)9,1.3408
MoP2O7,1.3408
Li2V3WO8,1.3408000000000002
BaInCuF7,1.3409
Li2VO2F,1.3410000000000002
Tb(CuS)3,1.3410000000000002
MgTlV4O10,1.3410999999999995
ZrNCl,1.3411
K2U2MoO10,1.3411
Na2Hg3S4,1.3411
Cs2HgC2SI4O,1.3411
MgV6(HO3)6,1.3412
SmCrTeO6,1.3412000000000002
Li3V3O8,1.3413
Li4Nb2V3Co3O16,1.3413
LiLaNb4O12,1.3413
Li2VO2F,1.3413999999999997
CdHg6(As2Br3)2,1.3414
Tl2Ge2Se5,1.3414
Te2MoWSeS,1.3414
BaCoAs2O7,1.3416
Li2VO2F,1.3416
Gd6MgIn2O12,1.3417
Na2La4Ti4Si3(S3O16)3,1.3417
Tm2Se3,1.3417
V2MoO8,1.3417
LiMn2NiO6,1.3418
MoH2N2Cl5O,1.3419
Li2Fe(PO3)5,1.3419
Tb(ClO2)3,1.3419
InGaO3,1.3419999999999996
Ba2MgTi3Tl2O10,1.3420000000000003
Cs2InAgCl6,1.3421
MnAl(WO4)2,1.3422
MgVCuO4,1.3422000000000005
Cs2MnCl6,1.3422999999999998
Li7Mn2(CoO4)3,1.3423000000000005
WO2,1.3423000000000005
Y2AlN3,1.3426
Li2Cr4O13,1.3426
Nd3Si(Mo2O7)2,1.3427999999999995
TaMnO4,1.3428
Rb3NiO2,1.3429000000000002
LaMgCrMoO6,1.343
Ga5(PS)3,1.3431000000000002
Cu2SiPbS4,1.3431999999999995
LiVOF2,1.3431999999999995
Li2TiV3O8,1.3432
Rb2S3,1.3433000000000002
Li4V5O9F,1.3433000000000006
LiMn(PO3)4,1.3434
Li2Mn2OF6,1.3434
Y4Si2Sn13(SbO14)2,1.3434999999999997
Li2V3WO8,1.3435999999999997
Mg(GeN)2,1.3436000000000003
Li3Cr(PO4)2,1.3436999999999997
MgV4O5F7,1.3437
MgCu2(WO4)2,1.3438
MgTi2(Fe2O5)2,1.3438000000000003
Mg30AlCoO32,1.3438000000000008
Fe3(OF2)2,1.3439
TbBi2ClO4,1.3439000000000003
V2H2O5,1.344
Sr2DyMoO6,1.3440000000000003
GePdS3,1.3441
Te2MoWSeS,1.3441999999999998
SrLuCuS3,1.3441999999999998
LiMnV(P2O7)2,1.3442000000000005
Li2TiCo2O5,1.3442000000000005
Rb2Th7Se15,1.3442999999999996
SrCrO2,1.3443000000000005
Ba5Hf2N6,1.3443999999999998
MgV2Cd2O7,1.3444999999999998
In6Ge2PtO9,1.3445
NaSrHfBiO6,1.3445
NaNdNb4O12,1.3445
TaBi4BrO8,1.3445999999999998
Na2MoC3SeN3,1.3446000000000002
Li32Mn13Cr3O48,1.3448999999999998
Li2TiFe2O5,1.3449000000000004
TbFeO3,1.3449000000000004
Nb2TlPS10,1.3449000000000004
MgW2(OF)4,1.3450000000000002
CaVAsO5,1.3450999999999995
Ca2Pr2MnNiO8,1.3451999999999995
Li6V3P8O29,1.3452
Li3Fe8(BO3)8,1.3453
Tb4Se3N2,1.3453
KSrSbWO6,1.3453
KNiAu3(CN)6,1.3453
KMgMn2O4,1.3453000000000004
Ta3Tl2Cl9,1.3454000000000002
VCrO3,1.3454999999999997
Li4CrSb(WO6)2,1.3455
Mg(AuF6)2,1.3455
LiVOF3,1.3457
V2OF5,1.3457
La2MgSe4,1.3457999999999997
AlFeO3,1.3457999999999997
Hg4As2Br3,1.3458
KSbN2,1.3458999999999994
Li6Cr3Co(PO4)6,1.3459
LiVF5,1.346
Na3AlP2,1.346
LaMn4(BiO4)3,1.3461
Al2HgO4,1.3461
Li12CrGa11O24,1.3461
K8MgTi2O8,1.3462
MnCrO4,1.3462
ZnAgF3,1.3463
K3W2(O2F3)2,1.3463
Sr(MgAs)2,1.3464000000000005
BaCaNb4O12,1.3465000000000005
Mg2SnSe4,1.3466
Mo4P9O32,1.3466999999999998
LiAgF4,1.3467
Li6NCl3,1.3467000000000002
Li3Fe2(SiO4)2,1.3468
Rb4P21I,1.3468
Fe3(OF2)2,1.3468
Li5Fe8(BO3)8,1.3468999999999998
TeMoWSe2S,1.3469000000000002
LiMnV(P2O7)2,1.3469000000000002
Li2TiCo2O5,1.3469999999999995
Ho2Sb2O7,1.3472
Ti(PS3)2,1.3472000000000002
RbGaH2,1.3472999999999995
Sr4Tl2CO9,1.3472999999999995
In2SiGe2S5O24,1.3473
Na6Ti4Zn4Si3(S3O16)3,1.3474999999999997
MnFeC5N6O,1.3475
Na2Zn(GeSe3)2,1.3476
NaFeCSO7,1.3477
CsRe6S8Br3,1.3477
CsCuPSe3,1.3477
Li9Mn2Co5O16,1.3478
TlFeO2,1.3478
Li2VFe(P2O7)2,1.3479
Li2TiFeO4,1.348
Li4Ti3Mn2Sn3O16,1.348
LiMo(PO4)2,1.348
Sr4MgFe4O11,1.3481000000000003
Fe2OF3,1.3483
Na3CoO2,1.3483
BiSbS3,1.3483999999999998
Li2VO2F,1.3484000000000005
Te(NO3)2,1.3485
LuTlS2,1.3485000000000005
SnPSe3,1.3485999999999998
Fe21O23,1.3487
Cd(GaSe2)2,1.3487
RbSi,1.3487999999999998
Rb3IO5,1.3488000000000002
K7Rb5(Fe2O5)2,1.3489
LiCu(PO3)2,1.3489000000000004
Fe(PO3)4,1.3489999999999998
Sr(SO5)2,1.349
Rb2LaNb2ClO7,1.3490000000000002
Li2VF7,1.3491
TiV(PO4)3,1.3491
Sr2NbCoO6,1.3491
Li3V4(OF3)3,1.3491
KAl4Fe3(HO6)2,1.3491000000000002
Cr(OF)3,1.3492999999999995
Li2V3WO8,1.3494000000000002
Li3Cr2P4HO14,1.3495
Rb2Cr(ICl)2,1.3495
HgI2,1.3495
Te4Mo3WS4,1.3495
TiZn(BiO3)2,1.3495
Sr6CaMn4O13,1.3496
FeHO2,1.3496
Na14Nb4Zn4Si9(SO16)3,1.3496
Rb3MnO3,1.3497
Ba4Mg(Fe2O5)2,1.4015
Bi2Au5F21,1.4016
SmCu(WO4)2,1.4017
Ba2MgMnMoO6,1.4017000000000004
Li3Fe5O9,1.4018000000000002
InCl,1.4018000000000002
Li3Fe8(BO3)8,1.4018000000000002
CaLaFeO4,1.4018999999999997
SbPb2S2I3,1.4018999999999997
Na24Nb2Zn10Si9(SO8)9,1.4019
Ba3SbI3,1.4021
Mg(FeO2)2,1.4021000000000003
Mg(SnO2)2,1.4021999999999997
Na3Sb3(AsO7)2,1.4022
MgV2CdO6,1.4023
Sr2CoO3,1.4023
ThNb4O12,1.4023
Zn(InS2)2,1.4023999999999996
Mg30VCO32,1.4024
Ba2AlW2F11,1.4025
Mn2Bi2O5,1.4025
RbFe3O5,1.4026999999999998
Ta2Si3Ge2(SO8)3,1.4027
LiCrPO4F,1.4027
YZnCu3Se4,1.4027000000000005
Rb2(PSe2)3,1.4027999999999998
VAg(IO4)2,1.4028999999999998
LiSbN2,1.4029000000000005
Mg14MnCoO16,1.4029999999999996
Li4Fe3CoO8,1.4030000000000005
Li5Fe8(BO3)8,1.4030999999999998
K2Zn2O3,1.4031
Na5NpO6,1.4031
Na2PH6(SeO)3,1.4031000000000002
Na2La4In4SiS11O48,1.4031999999999998
SbSe(IF2)3,1.4032
Li2Fe2Ni(PO4)3,1.4032
Na2CoAgF6,1.4033
Cd2Hg13(As2Cl3)4,1.4033
Ba2HoMgSbO6,1.4033000000000002
CaFeO2,1.4033999999999998
Ca(GdS2)2,1.4034
Yb2S3,1.4034999999999995
V4O7F5,1.4035000000000002
Na3CaFe4(SiO3)8,1.4038
Li3MnFe3O8,1.4038
Li32Ti13Cr3O48,1.4038
Li2VCoO4,1.4038999999999997
Na8Mg3Ge(PO4)6,1.4038999999999997
Te6RuBr8,1.4039
AgPd(IO3)3,1.4039000000000006
Na6Zr4Ti4Si7S5O48,1.404
Sr2VO4,1.4040999999999997
Gd2CdS4,1.4040999999999997
Bi3Sb(WO6)2,1.4041999999999994
Hg3(PO4)2,1.4043
CsZrCu3Se4,1.4043
Te7IrCl7,1.4044
Ba3Gd2(PS4)4,1.4044
Li2CrFeO4,1.4044000000000003
Y2MgV2O7,1.4045
MgV5O12,1.4046
KBH4,1.4047999999999998
MgV2Zn2O7,1.4048999999999996
AgAs(XeF5)2,1.4049
BiB12H11O3,1.4049999999999998
S3(NO7)2,1.405
SbS8Cl5O,1.4051
CsYZnTe3,1.4051000000000005
Nd2ThS5,1.4051999999999998
Na10Mg4Ti4Si5S7O48,1.4052
MgFe2(ClO)2,1.4053
K2Te(MoO5)3,1.4054
BSbO3,1.4054000000000002
Ge19(PBr)4,1.4055
AlMo(WO4)2,1.4055999999999995
NaCoBO3,1.4057
Tl2Sn2S5,1.4057
Tm2MgSe4,1.4057000000000002
K15Os7N19,1.4058000000000002
ZnSnAs2O7,1.4058000000000002
BaNd2CoO5,1.4058999999999997
LiVCrP2(HO5)2,1.406
K2UH6C2SO13,1.4061
Rh8C20O19,1.4061
Ba2Y2Mg(Fe2O5)2,1.4061000000000003
Ba2LuBiO6,1.4061000000000003
MgV4O7F5,1.4062
K2Sn2S5,1.4063
Pr2ThS5,1.4063
MgV2Te2O7F2,1.4063999999999997
CaTcN3,1.4065
VPH6C2N3O7,1.4065
Ag7P3S11,1.4065999999999996
Li5CoO4,1.4066
V(WO4)2,1.4066
YWN3,1.4066999999999998
Ba2DyMgSbO6,1.4066999999999998
V(SiO3)2,1.4068
Rb2U2Cr2O15F2,1.4068
Sn2(SO4)3,1.4068999999999998
MgMo3P3O13,1.4068999999999998
Na3Sc2(MoO4)3,1.4068999999999998
Li3Mn2O5,1.4069000000000005
UV2O8,1.4074
Li2CrFeO4,1.4074000000000004
Ti(FeO2)2,1.4074999999999998
Ba3V2O7F5,1.4075
LiFe3P3O11,1.4075000000000002
SrLaCuSe3,1.4075999999999995
LiZn2CrO4,1.4076
Fe2GeO4,1.4076999999999995
Li3MnF7,1.4076999999999995
CsBa2Nb3O10,1.4077000000000002
Li3Fe8(BO3)8,1.4078000000000002
Ba3Mn2O8,1.4078000000000002
Li2VO2F,1.408
Rb3As11,1.408
Li6V3P8O29,1.4081
V3(O2F)2,1.4082999999999997
Sr(ErSe2)2,1.4083
Mn(AsO3)2,1.4084
InBiS3,1.4085
SrCaMnGaO5,1.4085
LiFe2(PO4)2,1.4085
Li4Co2OF7,1.4086
KHgI3O,1.4086
CsSmZnTe3,1.4086000000000003
LiCrB3(HO3)3,1.4087
Li2Fe5B3O13,1.4087
V2MoO8,1.4089
PrSO,1.4090000000000007
AlAgO2,1.4090999999999996
ZnCoAs2O7,1.4092
CsNpCl2O3,1.4092
EuI2,1.4092000000000002
LiMo(PO4)2,1.4093
Tb3S3N,1.4093999999999998
Na4MgMn2O6,1.4094000000000002
CrFe5(PO4)6,1.4095
Rb2AlAuF6,1.4095
MgV4(O3F2)2,1.4095
VCrO3,1.4095000000000004
HfMg6WO8,1.4095999999999993
Na4Sn5O12,1.4095999999999995
Fe3OF5,1.4096
MnMoO4,1.4096999999999995
Na2Si5Ge8S7O48,1.4097000000000002
Li5Fe2P2(CO7)2,1.4098
BaPtO7,1.4098000000000002
Li4Mn3OF11,1.4098000000000002
AsI5F6,1.4099
K5CeNi2(NO2)12,1.4099
CdGeO3,1.4099
Mg3Fe4O7,1.4099000000000004
MnH8(NO5)2,1.41
KRb2TlBr6,1.41
C3S3O2,1.4102
K2Zn3O4,1.4102
FeCO3,1.4102
SrU3(SeO9)2,1.4102
LaMgCrMoO6,1.4102000000000006
Li5Fe6P5O24,1.4103999999999997
Li2V(FeO3)2,1.4106999999999998
Li2MnOF3,1.4107
Rb4U5O17,1.4107
Nb(SBr)2,1.4107000000000005
LiCu(HO)4,1.4109
MgV4CoNiO12,1.4109000000000005
ErTlS2,1.4109000000000005
Li2VPHO5,1.4109999999999996
Y2MgS4,1.411
Sr4MgMn2(GaO5)2,1.411
Li3VCr3O8,1.4110000000000005
BiCO3,1.4110999999999998
BaSr2(SnO3)3,1.4113000000000002
MgV4O10,1.4113000000000002
La2UO6,1.4113999999999995
NaMgV2Bi3O10,1.4116
Se5SO3F,1.4116
K2LaP2Se7,1.4116
CuAs4S3Cl,1.4116
FeHO2,1.4117
Ba2ErMgSbO6,1.4117000000000002
Gd3AlCdS7,1.4117000000000002
VAsO4,1.4117000000000002
CuH9CSN4Cl3O,1.4119
Zn2Sn3O8,1.4119000000000006
Ti2AgBiO6,1.412
KNbO3,1.4120999999999997
Ba2GeSe4,1.4121
Mg6MnZnO8,1.4121999999999997
Rb2Zn3O4,1.4122
MgVMoO5,1.4122
CaLaCrSbO6,1.4122000000000003
Mg3(BiN2)2,1.4122000000000003
BaFeO4,1.4123
Na8Co2O7,1.4124
Te2MoW3(Se2S)2,1.4124
LaMgMnFeO6,1.4124
Rb3NaMg(WO4)2,1.4125
Fe3(SiO4)2,1.4125
Li5SbS,1.4126
NiH12(ClO3)2,1.4126
SrFeNi2(PO4)3,1.4127
AlBiN2,1.4127
Ti5Fe7O18,1.4127
CaP4W3O14,1.4127999999999998
K2MoS4,1.4127999999999998
YWN3,1.4127999999999998
LiFeP2O7,1.4128
LiCoSiO4,1.4128000000000005
Ba2Fe5BiPb2O13,1.4128000000000007
NiH12(NO6)2,1.4128999999999998
Ca(IO6)2,1.4129
C3N4,1.4129999999999998
KLi6BiO6,1.413
Zn(NCl2)2,1.4130000000000005
Al2PdCl8,1.4131
Ge3N4,1.4131999999999998
Mg(FeO2)2,1.4131999999999998
Sr3MgGeN4,1.4132000000000002
La12Si4SnS28,1.413200000000001
AlAgAu2,1.4133999999999998
Fe8O9,1.4134000000000002
K(SiAs)3,1.4134999999999995
Ba3HoUFeO9,1.4135
MgCr2(AgO4)2,1.4135
Li17Ag12F29,1.4135
Li6V3P8O29,1.4136
Na5Fe2P2(CO7)2,1.4136000000000002
Zr2N2O,1.4136000000000002
K2BaNi(NO2)6,1.4136000000000002
Mg(FeO2)2,1.4136000000000002
Cd(SbO3)2,1.4136000000000006
Fe2(MoO4)3,1.4137000000000002
MoP2O7,1.4138
MnGe4H24C8(S5N)2,1.4138000000000002
Na10In4Si7Ge4S5O48,1.4139
KSnS4,1.4139
MgV4(OF)6,1.4139
SbHO3,1.4139000000000002
Ba2MnO3,1.4139000000000004
LiIrO2,1.4139999999999997
Ti2Pb5N6,1.4140999999999997
ErCu(MoO4)2,1.4141000000000004
K2Sm2Mg(MoO4)4,1.4144000000000003
Mg6MnCoO8,1.4144000000000003
Ba2InGaO5,1.4145
NaCaTa3Si3(SO8)3,1.4146
FeBiO3,1.4146
Na2Fe4O7,1.4146
In2PbS4,1.4146999999999998
Li4Fe3CoO8,1.4148
Dy2MgV2O7,1.4148
Ba2MgVMoO6,1.4148
LaCrN3,1.4148000000000005
Fe2CO5,1.4148999999999998
MgFeO2,1.4151000000000002
La5C2I9,1.4151999999999996
Li6V3P8O29,1.4152
Bi2(PSe3)3,1.4152
SbS4N4Cl5,1.4156000000000002
ZnS2,1.4156000000000004
VGaO3,1.4157000000000002
Li3Fe8(BO3)8,1.4157000000000002
Na4Mg(Mo2O5)2,1.4157000000000002
Zn2Ge5N8,1.4157000000000002
Li9Mn2Co5O16,1.4158
Sc4S3N2,1.4158999999999995
LiFeP2O7,1.4159000000000002
CsTeAu,1.416
Nd3U(ClO2)3,1.4161
CSe2S2N2(OF)3,1.4161
Li(MoO2)2,1.4162
Mg30MnSiO32,1.4162
Re4Xe3(O5F7)2,1.4162
K4Ge(SeO)4,1.4162
K2UC2SeSNO8,1.4163
RbCrF6,1.4164
K3V2(S2O9)2,1.4165
Li6CrN4,1.4165
Ba4NaAuO8,1.4166
NaFeO2,1.4166
NaCu5C6,1.4166999999999996
Tl3Ag3(SbS3)2,1.4166999999999996
Fe8H10O17,1.4166999999999998
Mg3(GaN2)2,1.4168000000000005
Na5Mg3GeP3(SO8)3,1.4169
ErAgS2,1.4169
V4O5F7,1.417
MgV4(OF)6,1.4170999999999998
LaBi5O9,1.4171000000000005
HfMg14CO16,1.4171000000000005
Sn15Ru3O14,1.4171999999999991
Tm2Sb2O7,1.4172000000000002
KSnAuSe3,1.4172999999999998
Mg6BCO8,1.4173
Ba2Fe2O5,1.4173
RbAgO,1.4174
MnP2O7,1.4175
VPO5,1.4175999999999995
Na2NdCuCl6,1.4175999999999995
Ga2PdI8,1.4176
Ba3Al2(Sb2O7)3,1.4176000000000002
MgV4O7F5,1.4177
AlMoO3,1.4177
Na8Ca3Ti(PO4)6,1.4178
Na6Sn2Se7,1.4178999999999995
K2Sn2Hg3S8,1.4179
RbMn6As7O24,1.4179
K2Ce(PO4)2,1.4179000000000002
Li4CrFe3O8,1.4179999999999997
Ca(CoO2)2,1.418
Li4CrFe3O8,1.418
Na3MnS2(O4F)2,1.418
Li4Cr5SbO12,1.4181
KNd(ClO)4,1.4181
Mg2MnSbO6,1.4181
KPSe3,1.4182
K2AgRhF6,1.4182
Sr2MgCoWO6,1.4182
RbMg6CoO8,1.4182000000000006
V(CO3)2,1.4183
Tl8Sb21As19(PbS17)4,1.4184
Th2HN3,1.4184
Li2FeO2F,1.4184
Li2WS4,1.4184
LiCrP2S7,1.4187000000000003
In12Ga4Ir2O15,1.4187000000000003
BaNb4CrO12,1.4187999999999998
NaLa2Ge2P3(SO8)3,1.4188
Bi10Te2I4O17,1.4188
CaLa2MoO6,1.4188
Cs3SnPSe7,1.4188999999999998
Ti4Zn3SnO12,1.4189999999999996
LiCr(FeO2)4,1.4189999999999996
Rb2PtC4(IN2)2,1.419
Rb3InI6,1.419
Na6Ca3Si2Ge(SO6)4,1.419
Li2SnS3,1.4190999999999998
Na6ZnSi6Ge7(SO8)6,1.4191
Ga2Te2Cl7,1.4191
MgCrPO5,1.4192
Ba2Bi2Se3O2,1.4192999999999998
MgCr2(AgO4)2,1.4193
Sn5C6S9(NO)2,1.4193000000000002
Cs2UC2S2(NO2)4,1.4194
Y(CuS)3,1.4195000000000002
Mn2CrSbO6,1.4196
Li9V3P8O29,1.4196
FeBiO3,1.4197999999999995
Gd2MgMo2(ClO4)2,1.4198
CrSbO4,1.4198
Li2VSi2O7,1.4198
Ca2InSbO6,1.4198000000000004
CaGe2WO6,1.4198999999999995
TmBi2ClO4,1.4201
NaPrInSbO6,1.4201000000000006
UCd(PbO3)2,1.4201000000000006
YTi3F15,1.4202
Ba2CePtO6,1.4204
CsLaZr6CCl18,1.4204
MgMn4(FeO6)2,1.4205
Li4CrFe2Ni3(PO4)6,1.4206
Er2VFeO6,1.4206000000000003
KMnO2,1.4207
CaSnS3,1.4207999999999994
SiPb7(ClO4)2,1.4207999999999998
TbCoO3,1.4208999999999996
CrH18I7N6,1.4211999999999998
MnFeNF6,1.4212
Te2PdCl10,1.4212
PtS4N3Cl,1.4212000000000002
Mg14ZnSnO16,1.4214000000000002