formula,band_gap (MP)
Ce9YO20,1.6819000000000006
Zn2MoWO6,1.6820999999999997
Te2O5,1.6822
LiHo2Cu(SiO3)4,1.6822000000000008
CsUSbO6,1.6823
Y2MgV2O8,1.6823
Rb4Hf3S14,1.6823
Cs2GeSe4,1.6824
CaNiMoP2O9,1.6824000000000003
Na6Mg3Si2Ge(SO6)4,1.6824999999999997
BCl(OF2)2,1.6826
Na2Fe2F7,1.6826
VO2F,1.6827
Tl2SiSe3,1.6828
K2Ag4Pt3(NO2)12,1.6828
NaMnO4,1.6829
Si2H2O3,1.6829
YMg6AlO8,1.682999999999999
Na4Mg(MoO4)2,1.6829999999999994
CoH4(NO4)2,1.6829999999999998
Ba2NdBiO6,1.6830000000000005
Li3Fe8(BO3)8,1.6831000000000005
Ce4ThO10,1.6831999999999994
TeAs(IF2)3,1.6832999999999998
Li2FeF5,1.6833
Ce5Zr3O16,1.6834999999999996
Zn2MoWO6,1.6835
Ce14Y18O55,1.6835999999999998
CdSeO4,1.6838
KHgC3(SN)3,1.6838
KAgTeS3,1.6838000000000002
NdHSe,1.6838000000000006
BaGdNbSnO6,1.6839
C50Cl11,1.6839
VZn(Si2O5)2,1.6839999999999995
CsK5Zn4Sn5S17,1.6840000000000002
Ca2NF,1.6841
Ca(SnO2)2,1.6843000000000004
Li3Fe2(SiO4)2,1.6844
Na6In8Si3(S3O16)3,1.6844
Li5BiO4,1.6845
VAs2Pb2O9,1.6845
Mg21FeSi12(HO16)3,1.6845999999999997
CsCu3S2,1.6846
V(GeO3)2,1.6846
Li4VP2O9,1.6847
Ga8Sb7Se8Cl29,1.6847
Fe2OF3,1.6847
Ta2Zn2CrO8,1.6847000000000003
NaMg30MnO32,1.6848
SiC,1.6849000000000007
Li2BSbO4,1.6851999999999996
MgTi3Pb5WO15,1.6852999999999998
BaPrTaCoO6,1.6852999999999998
BaUTiO6,1.6853000000000002
Tl6SeI4,1.6854000000000005
Nd2MgSe4,1.6854999999999998
BeCrO4,1.6855
YBiO3,1.6856
Cs4PbO3,1.6856
YMgCu(WO4)2,1.6856999999999998
K3PSe4,1.6858
BaMg6CuO8,1.6858000000000004
BaCaBiSbO6,1.6858000000000004
ZnSi(AgS2)2,1.6859000000000006
H8C3N2O,1.686
NaV2O4F,1.6860000000000002
KMnIO6,1.6860000000000002
IF7,1.6861
Na6Ca3Si2Sn(SO6)4,1.6861000000000002
NaMg6BO8,1.6861999999999997
Mg3V6Cd2Cu3PbO24,1.6862
SbCl2F3,1.6863
Na8CaSi5Ge3SO24,1.6863
Rb2Sn4S9,1.6863
Li2FeO2F,1.6863
Ba4InAgS6,1.6864
MgHAu2F11,1.6864
HfMg6BO7,1.6864000000000008
MgFe3Co2Sb(PO4)6,1.6864999999999997
Ba2La2MgZn(WO6)2,1.6864999999999997
Ca3Ti4PbO12,1.6864999999999997
Pr3ReO8,1.6865000000000006
Rb4Mg(FeO2)4,1.6866
PICl8,1.6868
LiY5(MoO6)2,1.6868
NbGa3SiS5O24,1.6868000000000003
Tl2Cl3,1.6868000000000003
La4Mg(MoO6)2,1.6868999999999996
Ba(InSe2)2,1.687
Na2YCuCl6,1.6871999999999998
AsSe3(BrF2)3,1.6873
NaV(SO4)2,1.6873000000000002
Na10In4Si7Sn4S5O48,1.6874000000000002
Cs(BI)6,1.6875999999999998
Ta2Ti2Si3(SO8)3,1.6877
RbIO2,1.6879
LiMnAsO4,1.6879000000000004
K2Ag2GeS4,1.6880000000000002
Sb2H20(Cl4O3)3,1.6880000000000002
CeSnO4,1.6880999999999995
V4(OF3)3,1.6881
Ba2MgMo4(Se2O11)2,1.6881
Sr8MgP4(IO4)4,1.6881
Ba6LiNb2Ir(ClO6)2,1.6881999999999997
SrScCu3Se4,1.6882
CaMg14MnO16,1.6882
Cs3Ta2S11,1.6882999999999997
VF3,1.6883
CoH22N7(ClO2)4,1.6884
AuBr,1.6885
Ba2Y2Zn8O13,1.6886
Na6Mg6SiSn2S11O48,1.6886
Zn3Mo2O7,1.6887000000000003
Ho2CrSbO7,1.6887999999999996
Li2CrF6,1.6888
ScNb3Si3(SO8)3,1.6888
VIO7,1.6888
Na4Ti5Mn4O18,1.6888999999999998
SiC,1.6890999999999998
Na9Ca5NbSi3(SO6)6,1.6891
Na12Ca10Ta2Si3(S5O24)3,1.6891
NbAgN2,1.6891000000000005
La2MgTiZnO6,1.6891999999999996
Nb3Sb(PO4)6,1.6892
Y10U4O27,1.6892999999999998
Tl3AsS4,1.6893000000000002
La5C2Br9,1.6893000000000002
Cs4Hf3Se14,1.6893999999999998
LiGeRhO4,1.6894999999999998
MnV2P2(H4O7)2,1.6895
Fe2Os(CO)12,1.6895
Mg14MnZnO16,1.6895999999999995
Nd2CdS4,1.6895999999999995
Li4Cr3FeO8,1.6896
K3Nd(AsS4)2,1.6896
TiPb15O17,1.6896000000000004
CsNa3PbO4,1.6896999999999998
KAg3As2S5,1.6896999999999998
SrNb3NO7,1.6897
AgBiO2,1.6897000000000002
W2NCl9,1.6899
MgFe4(HO2)4,1.69
Mg4TiN4,1.6901000000000002
Nb2PbO6,1.6902
Rb2U3P4H4O19,1.6902
Co3B7IO13,1.6902999999999997
Li2Co3OF6,1.6904
RbLaMnWO6,1.6904000000000003
Ba2NbFeO6,1.6905999999999994
MnV2O6,1.6906
Li2Fe7(OF2)4,1.6906
Ba2LaMgBiO6,1.6906999999999996
K2Pb2O3,1.6906999999999996
K2IrCBr5O,1.6908
BaSr2ScInO6,1.6908999999999996
NbP2S2Cl5,1.6909
ZnAgAu2,1.6909999999999998
MoP2NCl12,1.691
Li3Ni4SbO8,1.6910999999999996
Na4MgSi2SnSO12,1.6911
Na2MgSn3P4(SO12)2,1.6911999999999998
Zn2CoWO6,1.6911999999999998
SbCl5,1.6912
CuMo3Br7,1.6912
CaSn2S5,1.6913999999999998
Li2Fe2SnO6,1.6914000000000002
Cs3TlBr6,1.6915
Rb2InBiCl6,1.6915999999999998
K2MgFe4P6(O4F3)4,1.6915999999999998
Fe3NF9,1.6916
Na6Ca2Zr2Si3(SO8)3,1.6916
LiFe4(BO3)4,1.6916000000000002
LiV3(P3O10)2,1.6916999999999998
MnPb2WO6,1.6917
SrMg2N2,1.6917
SrC2,1.6917000000000002
Bi12PbO20,1.6917999999999995
Mg3Fe4(WO4)6,1.6917999999999995
MgNiMoP2O9,1.6919
Mn3Sb2(IO)4,1.6919
Rb2Zr2O5,1.692
CsGeSbO5,1.6920000000000002
Li7Mn7P6(O8F)3,1.6920999999999995
Li4MnCo2O7,1.6921
FeF2,1.6921
BaS2(NO3)2,1.6921
ZnFe2H28(S2O15)2,1.6923
Li3Fe3(SnO5)2,1.6923000000000004
GaSi2N3,1.6923000000000012
ClO,1.6924
Na10Mg2Si7Sn6S5O48,1.6924999999999994
LaMnO3,1.6926
Lu2MgV2O8,1.6928
CaFe4(PO4)4,1.6928
Li4SnSe4,1.6929
Li4MnO3,1.693
Na2MnF5,1.693
KLi3PbO4,1.6930999999999998
AlIO,1.6932
CaSnO2,1.6932999999999998
H7NO6,1.6933
Ca4SeN4,1.6934
Rb7NaSi8,1.6935
NaTa3ZnSi3(SO8)3,1.6935
Te4MoW3Se4,1.6936
Ti(PO3)4,1.6936
LuCuS2,1.6936999999999998
SrCaNb4O12,1.6939999999999995
La9Al5Se21,1.694
INO4,1.6941
ScI3,1.6942
K6ZnSe4,1.6945
K4ZnO3,1.6946
Li2Mo(PO4)2,1.6946
AlC6N,1.6946999999999997
LaNb3Si3(SO8)3,1.6947
BiW2(Cl4O)2,1.6948
MgFe6O7F5,1.6948
W(OF)2,1.6949
Fe2Te2Ru2(CO)11,1.6949
Re6Se7Br4,1.6949
LiVGaO4,1.6950999999999998
Cs2ZnO2,1.6950999999999998
Mg30VSiO32,1.6951
Se2NO6,1.6951
TeMoWSe3,1.6951999999999998
SbSe3N2Cl7,1.6951999999999998
Cs2UMoO7,1.6953000000000005
Ba2LaI7,1.6953999999999998
BaMnSnWO6,1.6954000000000002
Ca3SnS5,1.6955
Ge2SeN2,1.6955
Cs3BP2,1.6955000000000002
TbH2Br,1.6956000000000002
TeMoWSe3,1.6956000000000002
Li2VCrP2(HO5)2,1.6957000000000004
PmErO3,1.6957999999999998
H2WO5,1.6959000000000002
Si2H2O3,1.6959999999999995
LiFe2(BO3)2,1.696
NaYb(PS3)2,1.696
KSrCeBiO6,1.6961
LiNiRhF6,1.6961
Na6MgTi7Si6(SO8)6,1.6961000000000002
Y2MgV2O8,1.6961000000000004
Mg(BiO2)2,1.6961999999999997
Li3Fe2(SiO4)2,1.6962000000000002
Li2AlCoO4,1.6962000000000002
Mg6SiSnO8,1.6962000000000002
NaNb13O33,1.6963
TlI3,1.6963
Mg(AuF4)2,1.6964
Li3Fe8(BO3)8,1.6965
TeWSe,1.6966
Cu4H3C2N5,1.6966
TeWO6,1.6966
Cd(HO)2,1.6967
GaCuI4,1.6967
BaDy2MnO5,1.6967
BaCaPrBiO6,1.6967999999999996
S2N,1.6968
Na3YSiGe(PO6)2,1.6969
KLaFeSbO6,1.6969000000000003
WS2,1.697
Ca7GeN6,1.697
Na3InSi3Ge3(SO8)3,1.697
Ba3P4O13,1.697
Na4MgSiGe(PO6)2,1.6970999999999998
BaFe4Sn2O11,1.6971000000000005
Y2Hg2O5,1.6972
InRe4C14I3O14,1.6973
Mg30MnCrO32,1.6973999999999991
S3(NO)2,1.6974
SrCaBiSbO6,1.6974
Sn2SI2,1.6975000000000002
LiCuS,1.6975000000000002
MgVFe(P2O7)2,1.6975999999999998
Se2S(NCl)2,1.6977
Tb2MgV2O8,1.6977000000000002
Sc7V9O24,1.6977000000000002
K2SeBr6,1.6978
Na8Mg2Nb2Si5SO24,1.6978
Ba16Nb5N19,1.6979000000000002
Na8Y2Zr2Si5SO24,1.698
Er2MgCr2O8,1.698
MgV2Bi2(PbO5)2,1.6981000000000002
Sr2BiSbO6,1.6981000000000002
MnFeH4O2F5,1.6982
BaCaNdBiO6,1.6982
Na8Nb2Zn2Si5SO24,1.6982
Rb2ScAuF6,1.6982000000000002
Te2Mo3WSe6,1.6982999999999997
Li2MnV3O8,1.6982999999999997
LiCuS,1.6982999999999997
Na42Ca16Ta8Si21(S5O48)3,1.6985
LiAg(CO2)2,1.6986999999999997
Fe5(GeO4)3,1.6987
Lu2Pt2O7,1.6988999999999996
Na2ErCuCl6,1.6989999999999998
Na14Zn2Si9Sn6(SO16)3,1.6989999999999998
Na30Mg20Nb4Si9(S3O16)9,1.6991999999999998
BaSrGdBiO6,1.6993
K3UH5C5O12,1.6993
Na2Al4Si3Sn4(S3O16)3,1.6993
Sr2GdBiO6,1.6993
MgV2Ni(TeO5)2,1.6995
K2ReF6,1.6997
Eu(AlCl4)2,1.6997
Ca2PI,1.6997000000000004
MgFe4O5F3,1.6997999999999998
SiC,1.6997999999999998
K2MgFe4P6(O4F3)4,1.6998000000000002
Na6Ti7ZnSi6(SO8)6,1.6999
KTiCu3Se4,1.7001
Li6MnV3(PO4)6,1.7001999999999995
Pd(SeCl3)2,1.7002
Rb2FeO4,1.7002
K4PbO4,1.7002000000000002
Nd2ZnPtO6,1.7003
Cs4CO4,1.7003
LiTeHO4,1.7004
CdSi7N10,1.7004
BeNF3,1.7006
LiFeCO3F2,1.7006
Ba2MgNiMoO6,1.7007
YFe(WO4)2,1.7007000000000003
MnV4CoO12,1.7008
LiMnF4,1.701
Sr2MgZnMoO6,1.7010999999999998
LaFe5(GeO5)3,1.7010999999999998
BaCaGdBiO6,1.7010999999999998
LiCuCO3,1.7011
CeZrO4,1.7012
KLaTe2,1.7012999999999994
Ba3Fe2TeO9,1.7012999999999998
KC(NO2)3,1.7013
MgFe4(PO4)4,1.7013
Na10Sc4Ti4Si7S5O48,1.7016999999999998
Ca3Ga3N5,1.7016999999999998
Sm2MgCr2O8,1.7016999999999998
La2VZnO6,1.7017999999999995
BaGdNbSnO6,1.7018999999999995
Cd(HO)2,1.7019
U3Tl2(IO5)4,1.7019000000000002
Te4MoW3(SeS)2,1.7022000000000004
KLaTaAlO6,1.7024
NaTiInSi(SO6)2,1.7024
Ho12Si5S28,1.7024
MgCd2(WO4)2,1.7024000000000004
K3RhCl6,1.7025
K5FeO4,1.7025
Li3AuO3,1.7026
Ba6CdAg2(SnS4)4,1.7026999999999997
Sr2CrSbO6,1.7026999999999997
Ho2Mg(SbO3)4,1.7027
NClO,1.7027
Na5Y3Ge(PO4)6,1.7028
K2TaNbO6,1.7028
K2Mg4U3(H13O12)4,1.7029
NbFeO4,1.7029
PbCN2,1.7030999999999996
La4Cu3MoO12,1.7031
LaZnFeMoO6,1.7031999999999998
LiFe6(OF2)4,1.7032
CuP4S3I,1.7032000000000005
Ho2MgMo2(ClO4)2,1.7033
YAgS2,1.7034000000000002
ZrBrN,1.7035
Ba2H4Pd,1.7035
NaSbO7,1.7035999999999998
Sm3CuSnS7,1.7035999999999998
MgCo2(MoO4)2,1.7036000000000002
KAlTe2,1.7037
Sn8P2O13,1.7037000000000004
NaSbO3,1.7037000000000004
Te3MoWSe,1.7037999999999998
K6Al11Si13Ag5O48,1.7038
NiGe3O8,1.7038000000000002
Mn2Zn3(Si2O7)2,1.7039
BeCrO4,1.7039
CoBi6P2(O7F)2,1.7039999999999995
Hg3(TeBr)2,1.7040000000000002
Mg30CrNiO32,1.7041999999999993
RbAg4I5,1.7041999999999995
BaMo(PO4)2,1.7041999999999995
FeH8(BrO2)2,1.7042
YAgS2,1.7042000000000006
LiFe2O2F3,1.7043
Li2CoAgF6,1.7043
Sm2ZnPtO6,1.7044
H36Pb3C10(I5N2)2,1.7045
Li2B2Se5,1.7047
KRb2MnF6,1.7047
Na3Sr7Ti7Nb3O30,1.7047000000000003
Tb5AgS8,1.7047999999999996
KLaTbBiO6,1.7048
Zn(BiO2)2,1.7049
H2W2O7,1.7049
K2CaNi(NO2)6,1.7049
Cd2AsO4F,1.7050999999999998
Te4Mo3WS4,1.7050999999999998
K4Pt2(SO4)5,1.7050999999999998
Li2VOF3,1.7051
BaCaTbBiO6,1.7052999999999998
LiV3F10,1.7053
Li6V9(PO4)8,1.7053000000000005
Lu2TeO6,1.7053000000000005
Ba2InAgS4,1.7053999999999996
LiMn2F7,1.7055000000000002
FePO4,1.7056
Na9Mg4Nb2(PO4)9,1.7057
LiFe2F6,1.7058
NaH9Rh2C5O12,1.7058999999999995
KLaYBiO6,1.7059000000000002
PAuO4,1.706
MgCr4Hg4(H2O9)2,1.7061
C3OF2,1.7061000000000002
Sr2LiCdWO6,1.7062
Te2MoW3(SeS2)2,1.7063
Ce(WO4)2,1.7063
Li5V3Cr2O10,1.7064
Co(NO3)2,1.7064
Li5MnV3O8,1.7064000000000004
Nd2MgCr2O8,1.7066
Sr2MgMnMoO6,1.7067
Sc2SiGe2S5O24,1.7067
Na3MgNbSi(PO6)2,1.7069
NaCr2FeO8,1.7069
Li5Cu(PO4)2,1.7069
Nb2Cd2O7,1.7069
TaP4S4Cl5,1.7069
Na5Y3Si3Ge(SO8)3,1.7069
Cr3Co2As2(CO)20,1.707
KHfCu3Se4,1.707
MgScCu3Se4,1.7070000000000003
LiCo(PO3)3,1.7070999999999998
Rb2BaPt2(CN)8,1.7071
SrCaSmBiO6,1.7071
Li4Cr3CoO8,1.7071999999999998
Na4Si2Te5,1.7071999999999998
LiV2OF5,1.7071999999999998
K2O,1.7072
CaC2,1.7072000000000005
BaV2H2Se2O11,1.7073
MgFe(SiO2)2,1.7073000000000005
SrNiF6,1.7074
YbSnO3,1.7074999999999996
TeMoWSeS2,1.7074999999999998
CsRb2TlBr6,1.7076
InTeI,1.7076
Ba4Zr3TiO12,1.7076000000000002
AlAgS2,1.7077
CoH5CN(ClO)2,1.7077
MgZn2O3,1.7077999999999998
Te2MoWSeS,1.7078000000000002
Rb4Mg(MoO4)2,1.7079
KNb(CuS2)2,1.7079000000000004
Sr3(GaN2)2,1.7079999999999995
Ba2SmGaSe5,1.7080000000000002
CrHg3(SO2)2,1.7080000000000002
LiLa4MnO8,1.7081999999999988
TiNiO3,1.7081999999999995
Zn(SbO2)2,1.7082000000000002
Sr22Nb10O47,1.7082999999999997
Hf3TePb4O13,1.7083
Sr2NiTeO6,1.7083
CuH2CS2N,1.7084
Pb(SN)2,1.7084
Mn5V2(HO3)4,1.7086
Li8CoO5F,1.7086
Y2Au5F21,1.7087
NaSr3BiO6,1.7088
Te6Mo3WSe2,1.7089
Na2NiHgF6,1.7089
LiAlVO4,1.709
Tb14(PbSe8)3,1.7091999999999996
TeMoWSe2S,1.7092
CsAuSe,1.7093
MgVO2F,1.7093
Ca51W12N56O3,1.7094
Sr(VN2)2,1.7094999999999998
Ba(BSe3)2,1.7096
Ba3NaBiO6,1.7096000000000002
K4Ta2S11,1.7096000000000002
LiCrPH2O5,1.7098
VOF2,1.7098
KMnO2,1.7098999999999998
LiFeOF,1.7099000000000002
PbWO4,1.71
Sb2Te3H2C(NCl9)2,1.71
K10Ge18WO4,1.7100000000000002
Ag2NClO3,1.7100000000000002
AgH4WS4N,1.7101
Sr2V3O9,1.7102
Na3NbZn5(SO4)9,1.7102999999999997
LiVSiCO7,1.7103
CaMn2F10,1.7105
Al(ICl2)3,1.7106
Li3Fe2(CO3)4,1.7107
K2LiSbI6,1.7108
Na9Sm(GeSe3)4,1.7108
YTi(WO4)2,1.7108000000000003
I3NO9,1.7109
GaP2I9,1.7111999999999998
Li(BH)4,1.7113
Li2CoSnO4,1.7113999999999994
TaNb(AgO3)2,1.7114000000000005
Ag2Se,1.7115
AsS4N4F5,1.7115
RbS,1.7115
K4P2PdS8,1.7116
KHgI3,1.7116
RbAuSe,1.7116000000000002
CaMg30CrO32,1.711799999999999
CaLa2Co2Sb2(PbO6)2,1.711799999999999
LaWN3,1.711799999999999
KLaNbFeO6,1.7117999999999998
Ce2Nd2O7,1.7118000000000002
MoH9S2(ClO)4,1.7119
Li4MnCo2O7,1.712
Mo(PO3)4,1.7120000000000002
LiAgAu2,1.7120999999999995
NaNiIO6,1.7121000000000002
ZnFeO2F5,1.7122
Fe3C10SeO10,1.7123
AsS4N4F5,1.7123
Ca2MnFeSi4(HO3)5,1.7123000000000004
Na2Gd2Ti3O10,1.7123999999999997
NaLaSnP2SO12,1.7124
Co(PO2)2,1.7124
VH2O3,1.7128
CoAgPO4,1.7129000000000003
BaDy2CoO5,1.7129999999999996
KLaDyBiO6,1.7130999999999994
Fe8H10O17,1.7132
Li4Ni5Sn(PO4)6,1.7132999999999998
SbCl3F2,1.7134
ZnSeO4,1.7134999999999998
K2MoO8,1.7135
LiZnFeO3,1.7135999999999996
LiFe2(BO3)2,1.7136
Na2Mg2NiH6,1.7138
Sr2GdBiO6,1.7138999999999998
LiCoNiF6,1.7138999999999998
Sr2NdBiO6,1.7139000000000002
TlIn3S5,1.7139000000000006
Zr9VO20,1.714
Ba2LaVO6,1.7140000000000004
Fe3Te2(CO)9,1.7140999999999995
LiMnB2O5,1.7142
SbP2SN3Cl10,1.7143000000000002
Gd2MgS4,1.7146
Ba4CaTi5O15,1.7146999999999997
Sr3Sc2N4,1.7146999999999997
Fe3PO7,1.7147
Os6C19SO19,1.7147
Ga7(Fe3O8)3,1.7148000000000003
KPS3,1.7149
RbAu(SO4)2,1.7149
La2MgMnO6,1.715
RbLiV(PO4)2,1.715
In2(PS3)3,1.7155
SrCaGdBiO6,1.7155
UTl2Cr2O10,1.7155
CoB10H21(C6Cl)2,1.7155
LiFe4(BO3)4,1.7156
Sr2MgCo2O5,1.7157
MgCd2(WO4)2,1.7157999999999998
TiCrSO8,1.7157999999999998
KLa5(CCl5)2,1.7157999999999998
K2MgFe4P6(O4F3)4,1.7159999999999995
Ce3Zr5O16,1.7159999999999995
BaSrNdBiO6,1.7161
Mg3MoN4,1.7161
K6HgS4,1.7161
Li7VO5F,1.7161000000000002
Mg3Fe4(SbO4)6,1.7163
Mg2TaWO6,1.7163999999999993
BiPbIO2,1.7164
SrLiVPO6,1.7166999999999994
CsBSe3,1.7167
Ho10Ti6O27,1.7167999999999997
MgCo(GeO3)2,1.7168
Ba(YbS2)2,1.7168
Cs2LiCr(CN)6,1.7169
SnH16Se3N7,1.717
ZnAgPO4,1.7170999999999998
Rb4PbO4,1.7171000000000003
S3(NCl)2,1.7172
K3Ta2S11,1.7172999999999998
Cs2ScAuBr6,1.7173
Li3MnCr3O8,1.7173000000000005
LiMnVO4,1.7173000000000005
Li2VCrO4,1.7173999999999996
Zn(AuF4)2,1.7174
Li3Fe8(BO3)8,1.7174999999999998
Fe4As5O13,1.7174999999999998
Li2VSiO4,1.7175000000000002
ZnBiWO5,1.7176
Nb3AlSi3(SO8)3,1.7176999999999998
K3SiTe3,1.7179000000000002
Li2FeSnO4,1.7179000000000002
K2TcF6,1.7181
CsReF8,1.7181000000000002
Li2Mn3OF6,1.7183
CaLa2FeO6,1.7183000000000002
Li4VCr3O8,1.7184
CoB10H19C11,1.7185
KZrCu3Se4,1.7187
CrH10C2(NO4)2,1.7187
Zn(SbO2)2,1.7187
Na2Sc4Ta4Si5S7O48,1.7187
Ga4Hg11(PCl4)4,1.7188
Mg30CdSnO32,1.7188
LaN,1.7188999999999997
Mg5AlH21O17,1.719
HoTlS2O9,1.7191
PrNb3O9,1.7191
Na18Ca4Nb8Si15(SO24)3,1.7191000000000003
TiZn(BiO3)2,1.7191999999999994
Na2Sc3NbSi2(SO6)4,1.7191999999999998
NaHf2Ge2P5SO24,1.7193
Li2MnAl2O6,1.7195999999999998
Mg6CrBiO8,1.7195999999999998
NaNbO3,1.7196
RhC2ClO2,1.7196
Na3CrCl6,1.7196
Sr(ClO)2,1.7196
NaNb(CuS2)2,1.7198
K2U2WO10,1.7198000000000002
SrLaMnSbO6,1.7198000000000002
Te(HO2)2,1.7198000000000002
Na2Hf4Si5Sn4S7O48,1.7199
Na2W2O5,1.7199
V6O5F19,1.7201
Mo(PO4)2,1.7202
Ba2LaVO6,1.7202000000000002
V4Zn3(PO4)6,1.7203000000000004
Li2VFe(P2O7)2,1.7203999999999997
AgNO3,1.7204
Li4V5O9F,1.7204000000000002
VAgO3,1.7207
MgZnO2,1.7207
MnAl(WO4)2,1.7209000000000003
MnTeMoO6,1.7211
Li2AlCoO4,1.7211
Ta2Co4O9,1.7211000000000003
Gd2S2O,1.7211000000000003
Sr(AsS2)2,1.7211999999999998
LiFeSiO4,1.7211999999999998
Cs2YCuI6,1.7212
BaCaTbBiO6,1.7212999999999998
CaSnS3,1.7213
Ca2BiSbO6,1.7213000000000005
K6U5V2O23,1.7214000000000005
Rb2LiSbI6,1.7214999999999998
TiMn3O8,1.7216
Tl2Hg2PdCl8,1.7216000000000002
PNO4,1.7217
SmTlO2,1.7217000000000002
Li6Fe3Co(PO4)6,1.7217999999999998
V4(OF3)3,1.7218
Na3CuO2,1.7218999999999998
Na7Mg2Nb2Si3(PO8)3,1.7219
MgV2O6,1.722
NaCaTa3(PO4)6,1.7221000000000002
H6Os5Pt2(CO)17,1.7221000000000002
Ba2SnSe3F2,1.7221999999999995
Na5Ti2Zn2P5SO24,1.7222
Na6Y4Nb4Si7S5O48,1.7223
LiCr3(P3O10)2,1.7223
Rb2LiRhF6,1.7225
CaFe(GeO3)2,1.7226000000000004
ZrNCl,1.7226999999999997
BaSrLaVO6,1.7227
Zr2N2O,1.7227
Cd5(S2Cl)2,1.7229
Li3MnF6,1.7229
Na7Nb3Zn(SiO4)6,1.7229
Ba3Sr5Ti8O24,1.723
As8S9,1.723
LaNbSi(SO6)2,1.723
RbMn4(AsO4)3,1.723
Li4V3O8,1.723
Li8MnO5F,1.7231
Mg14SiSnO16,1.7231000000000003
RbB6H8O7,1.7231999999999998
LiV2OF5,1.7232
Na3MoCl6,1.7232
Li2MnV3O8,1.7233
Ni(SbO2)2,1.7233
AlV(WO4)2,1.7233999999999998
Nd10S14O,1.7234000000000005
Cs2SnSe3,1.7235999999999998
BaSrLaVO6,1.7237999999999998
Ba2TbBiO6,1.7238000000000002
SbH2C(O2F3)2,1.7239
Na6La6Ta2Si5S7O48,1.7239000000000002
RbTaPS6,1.7240000000000002
K3TiCl6,1.7242000000000002
SrMg2FeH8,1.7242999999999995
Na6Nb4Ga4Si7S5O48,1.7243
K2ScP2Se7,1.7243
V6O5F19,1.7243
SrNd2Ti4O12,1.7245
Ca(BiO2)2,1.7245
TaSb3O8,1.7245
LiFeOF2,1.7248
Hg3(SBr)2,1.7249
K2V3O8,1.7249
Mg2VWO6,1.7249999999999996
S5N4O3,1.7253
LiAlVO4,1.7253000000000005
K4Sn(TeSe)2,1.7253999999999998
LiV(SiO3)2,1.7254
LiVAsCO7,1.7254
Mn5As4(HO2)10,1.7254999999999998
Li2CrFeO4,1.7254999999999998
Ga2PbSe4,1.7254999999999998
Li3V(PO4)2,1.7255000000000005
V6O5F19,1.7256000000000002
Fe3P4H8NO12,1.7257
Na2LaNbSi(PO6)2,1.7258
Sm2MgV2O8,1.7258000000000004
Li3MnCoO5,1.7259000000000002
Li10Cr3Fe3(NiO8)2,1.7259000000000002
CsS,1.7260000000000002
LaSeF,1.7260999999999995
V6O5F19,1.7261
V6O5F19,1.7262
La2Ni2O5,1.7262000000000004
MgV2(PO5)2,1.7264
K2GeSe3,1.7264
V3Pb2O9,1.7264000000000004
LiB,1.7264999999999997
C2S3,1.7265
Ti2Sn3O10,1.7265999999999997
Ba9Nb2CN10O,1.7266
YPO6,1.7266
Li4CrO4,1.7266
Li3AlCoO4,1.7269
K2PdN2(ClO2)2,1.727
Re3Se2Br5,1.727
Na2Zn(SnS3)2,1.7271
V6O5F19,1.7271
Cr3B7IO13,1.7271999999999998
Li3V3(PO4)4,1.7272999999999998
Ba(AgO)2,1.7273
AuSeCl7,1.7274
V2OF5,1.7274
Na4Ca3SnP2(SO6)4,1.7274999999999998
Hg2Sb7H2Xe3F59,1.7275
Mg(ScS2)2,1.7276000000000002
VZnAsO5,1.7277
Li2VFeP2(HO5)2,1.7279
Mn(HO)2,1.7280999999999995
Sm2MgMo2(ClO4)2,1.7282000000000002
LiVP2O7,1.7283
Li2Mo(PO4)2,1.7283
Sr2GeSe4,1.7283000000000002
Ga4GeS4,1.7283000000000004
V2P2O9,1.7284000000000002
TbErO3,1.7284000000000002
Ce3Th4O14,1.7286
Tl2Cr3O12,1.7286
Cu2H12C4Br3N,1.7288
ThP2(NO4)2,1.7289
Fe3OF5,1.7289
CaV2Zn2(SiO5)2,1.7289999999999996
Pr2Au5F21,1.729
Yb4MgTi2O10,1.7292
H4C(N2O)2,1.7294
LaZrNO2,1.7294
Fe5OF11,1.7294
CdBiS2Br,1.7294999999999998
LiFe8(BO3)8,1.7294999999999998
Li3V2(PO4)3,1.7296
Si2AuN3,1.7297999999999991
Lu2MgCr2O8,1.7298
V4OF11,1.7298
Mn9Al2Si8(HO4)8,1.7298999999999998
Ba5Mn3ClO12,1.7299
Na4ZnSe3,1.7299
Na3Ga3(TeO6)2,1.7299000000000002
ScAs2H4NO7,1.73
V6O5F19,1.7300000000000002
CsLaCdTe3,1.7300999999999995
Mg30VCrO32,1.7301000000000002
NaNbO3,1.7302
Ba2TbBiO6,1.7302
NbSNCl6,1.7302
NaSrCeBiO6,1.7302999999999995
LiVP2(HO4)2,1.7303000000000002
Tm10Ti6O27,1.7303999999999995
Mg30VCrO32,1.7304999999999993
La2MgFe2(TeO6)2,1.7305
BaCaSmBiO6,1.7306
TaAgO3,1.7306000000000004
Cs2U(N2O7)2,1.7307
Fe3P2(HO5)2,1.7308
YSnP(SO6)2,1.7308
Li3CoBO4,1.7308000000000003
Fe4OF7,1.7312
MgCo2(PO4)2,1.7312000000000003
Na4Mg3TiP2(SO6)4,1.7312999999999998
Ba2YMgBiO6,1.7313
Fe3OF5,1.7313
H8PtN2(ClO)2,1.7313
NiH44C12N8(ClO5)2,1.7314
Li2CrFeO4,1.7314999999999996
LiVCO5,1.7315999999999998
Na4LaSi2SnPO12,1.7317999999999998
Ba3MoN4,1.7318000000000002
LiBi2BO5,1.731800000000001
Lu2MgS4,1.7319
TlNO2,1.7320999999999998
V3P4PbO17,1.7321
NaNbO3,1.7321
CsCuC2,1.7321
K14W6N17,1.7321
Na5MgBiO5,1.7321999999999995
Li2VF6,1.7323
CuSi2N3,1.7323999999999984
Ca2CrFeO5,1.7324000000000002
K2RuN3Cl3O5,1.7325
DyMgCu(WO4)2,1.7325
MgZn(FeO2)4,1.7325000000000004
BaI2O,1.7326
Rb2Ag4Pd3(NO2)12,1.7326
MgVFeP2(O4F)2,1.7326
RbAu3Se2,1.7326
Li4Re6S11,1.7327999999999997
Cs7Np3(Cl2O)6,1.7328
BaMg6MnO8,1.7329
VOF,1.7329000000000003
LiFe2OF5,1.733
Tb3CuSiS7,1.7330000000000003
YCuS2,1.7330999999999994
Ba2DyBiO6,1.7331
Na8Mg(NiO4)2,1.7331
Na9NbZn5Si3(SO6)6,1.7331
LiVSiO4,1.7331999999999996
Fe3(P2O7)2,1.8996
K2SnBr6,1.8996
CsCu2I3,1.8996000000000004
Cd4OF6,1.8997
V3OF11,1.8997
RbPrSe2,1.8997
VPO5,1.8997
Si(Sn3O4)2,1.8998
Mg(MoO2)2,1.8999000000000008
Li3Fe2(PO4)3,1.9001
La2MgMoO6,1.9001
Na9Ca10Nb2P3(S5O24)3,1.9002
Na6In4Si3(SO8)3,1.9003
LiV(PO3)4,1.9003
LiFeP2O7,1.9003
Sr2CaTi3O9,1.9005
Li2V4Si4O13,1.9007
Li7Zr3Nb(TeO6)4,1.9009000000000005
Sr2Ca49Mo12N56O3,1.901
MnBiO3,1.9011
Li3Al(FeO3)2,1.9011
Tl4GeS4,1.9011000000000005
Hf2N2O,1.9012
Li2MnCr(PO4)2,1.9013
H15PdRuN9O11,1.9013
CaPSe3,1.9014
Ba(FeO2)2,1.9016
Ca2V3O8,1.9017
K2CuBr3,1.9018
Li3RhF6,1.9018
Li2FeP2HO8,1.9018
CsHgBr3,1.9018
NaCaTiFe3O8,1.9018
SrMg6NiO8,1.9018999999999997
SrI2O,1.9019
CaY5(MoO6)2,1.9019
Ag3N5O6,1.9021
PbF4,1.9022
LiPrS2,1.9022
CoBi6(SO8)2,1.9022999999999997
U(HO2)2,1.9023
CoH14N5O9,1.9023
YMgCu(WO4)2,1.9025000000000003
Ge3N4,1.9026
Mn4C15S4O15,1.9026
NbSb3O8,1.9026000000000003