formula,band_gap (MP)
Li2Ti2V3O10,1.2224999999999997
LaBi2IO4,1.2225
LiFe2(BO3)2,1.2226
Cs4Zr3Se14,1.2226
V2FeO4,1.2226
Na3CuF6,1.2227
Fe3(OF2)2,1.2227
K2VCuS4,1.2228
Nd3CuGeSe7,1.2228000000000003
Sr5Zr2N6,1.223
Li3Mn(BO3)2,1.223
Mg6BCO8,1.2231999999999994
Ba2PbO4,1.2232000000000005
LiCuCO3,1.2233
NaVPCO7,1.2233999999999998
BaPdCl4,1.2233999999999998
Na4MgCr2O8,1.2233999999999998
MgNb2(FeO4)2,1.2234000000000005
KP2Au5S8,1.2236000000000002
AsRhS,1.2237
LaMoN3,1.2237999999999998
Li3V3P8O29,1.2238
Na14Ca6Ti2Si5S7O48,1.2238000000000002
WN2,1.2238000000000009
Li3V3P8O29,1.2239
LiMn(CO3)2,1.224
Li5NiO4,1.2241
MgMn6O5F7,1.2241
Li2AlNiO4,1.2242
VP2O7,1.2243
LiSb(TeO4)3,1.2243000000000004
LiMn2P5O16,1.2244
GaBiO3,1.2244000000000002
TaCl4,1.2245
Na6MgV2O8,1.2245
Cs3PuH8O9,1.2246
Li5MnO4,1.2246
MoP4H36(C6Cl)2,1.2246
CsEr2Cu3Se5,1.2246
Lu2Si9B36C,1.2246000000000006
LiV4O10,1.2247
Na2Zn5Ge3(SO4)12,1.2249
BaLaTiCrO6,1.2249999999999996
Na10Ti5Zn3Si6(SO8)6,1.225
Tl3BSe3,1.2251999999999996
Li9Mn2Co5O16,1.2252999999999998
KTbS2O9,1.2252999999999998
Tm4CdS7,1.2252999999999998
InPF3,1.2253000000000005
Na6Mn2B4SO16,1.2253999999999998
Ba(GdSe2)2,1.2254999999999998
ScWN3,1.2255
NdTlSe2,1.2255000000000005
S3N2Cl,1.2255000000000005
Ca3Co2(Si2O7)2,1.2255000000000005
MgFe2(OF)2,1.2255999999999996
BeC2,1.2256999999999998
Na9Ca5Nb7Si9(SO8)9,1.2257
Na2Sc4Ti4Si3(S3O16)3,1.2258
Sr5Mo2N7,1.2258
Ag15P4S16Cl3,1.2258
MgCr2Fe3Ni(PO4)6,1.2258
Li24Ti5Cr7O36,1.2258999999999998
Mo2WSe6,1.2259
Mo2WSe6,1.226
Li11Nb4(Ni3O8)3,1.2260999999999995
NbV3O8,1.2261000000000002
Ba2CaY2(Fe2O5)2,1.2261999999999995
Li6V3P8O29,1.2262
K6Mg(BiO4)2,1.2262999999999995
Cd4Te5Pb,1.2262999999999995
Y2HfS5,1.2263000000000002
Mo3O8,1.2265
Zr(PbN)4,1.2265000000000006
Li3Fe3WO8,1.2266
V2O3F,1.2266999999999997
Rb3ClO,1.2267
La2MgMoO6,1.2267
Fe6O5F7,1.2268
MgZn2(MoO4)2,1.2269
YCu(WO4)2,1.2269
ErCu(WO4)2,1.2269
PrBi2BrO4,1.2269000000000003
Sr10Fe5Mo4WO30,1.2270000000000003
Ba3Bi3N5,1.2271999999999998
SrZrN2,1.2271999999999998
KMg14CoO16,1.2271999999999998
MgV4FeNiO12,1.2272999999999998
SmCu(WO4)2,1.2274999999999996
Rb3MnF7,1.2275999999999998
Li5Fe8(BO3)8,1.2275999999999998
Li4TiCrO6,1.2276000000000002
CaMg14VO16,1.2276999999999996
Li7Co(O2F)2,1.2277
CuAg64Hg3(As4S15)4,1.2277
Li7Ni(O2F)2,1.2277999999999998
C41F14,1.2278000000000002
MgFe8(OF)8,1.2279999999999998
Na10Zn4Si5Sn4S7O48,1.2280000000000002
Li4V2Ni3Sn3O16,1.2281
KEr2Cu3Se5,1.2282000000000002
VSO5,1.2283
Sr7Al12O25,1.2284000000000002
Mg30AlCuO32,1.2284999999999997
Cs4Re6S13,1.2285999999999997
CN4Cl,1.2285999999999997
In5S5Cl,1.2286
Ta3Br7,1.2286
Mg14GaBO16,1.2286
VFe3Ni2(PO4)6,1.2288
V2Bi7O15,1.2288999999999994
Li2MnV3O8,1.2289
CaMn2O4,1.2289
Ag2SO4,1.2289
LiV2O5,1.2290000000000003
BaSrCeVO6,1.2290000000000003
W3NO9,1.2291
MgV4(OF6)2,1.2291
Cs3PuH4O7,1.2291999999999998
LiCoSiO4,1.2292999999999998
VOF2,1.2292999999999998
CaNiO3,1.2293000000000005
CeSe2,1.2294
Li3CoO3,1.2294
Cs2TlSbBr6,1.2294000000000005
Na2ZnGeP2SO12,1.2295
LiSb(TeO4)3,1.2295000000000005
K2InSbCl6,1.2295000000000005
SmSF,1.2296999999999998
Na6MgMo2(NO3)2,1.2296999999999998
Ca4HfN4,1.2298000000000004
YbS2,1.2298999999999998
Mn3Zn2O8,1.2298999999999998
NbCo(PbO3)2,1.2298999999999998
Mn3(OF2)2,1.2298999999999998
KCN,1.2299
MoPO5,1.2299000000000002
MgMo3O8,1.23
Bi20(PtBr12)3,1.23
Na3VS4,1.23
LiCo(PO3)4,1.2302
Cd(GaO2)2,1.2302
TbCuPbSe3,1.2303000000000006
Nb3(BiO3)5,1.2304
MgV8(PO4)12,1.2304999999999997
Rb3V2ZnP4O17,1.2305
Ba4Fe3(S3F2)2,1.2306
Tl4CO5,1.2306
Rb2VCuS4,1.2306
Rb2InAsCl6,1.2307
BaMo4O15,1.2307
Ba2Ge2Se5,1.2308
RbCu3SiSe4,1.2308999999999997
K2Sn2O3,1.2308999999999997
Ga2SbTe4Cl7,1.2309
CaFe2P3HO12,1.2309
Fe6O5F7,1.2309
BaCo2P2H2O9,1.2309
Mg3Ga3N5,1.2309
Li3MnSiBO7,1.2309
LiV3Zn2O8,1.231
BiSbWO6,1.2310999999999996
Li24Mn11CrO36,1.2311
TiSO5,1.2312
UTa2O8,1.2312000000000003
Li5Mn2CoO8,1.2312999999999996
Li24Mn11CrO36,1.2313
Na10Ca6Si3Sn2(S3O16)3,1.2314000000000005
MgV4Cr2O12,1.2314999999999998
Na6MgSi4Ge3(SO12)2,1.2315
Li2TiV3O8,1.2315000000000005
MgSnN2,1.2315000000000005
Mg(MoO2)2,1.2315000000000005
Rb4Re6S13,1.2315999999999998
PrTl2InSe4,1.2316000000000005
LiMnB2O5,1.2317999999999998
NdZnPO,1.2317999999999998
K2H3OsN2O7,1.2318
BBr,1.2319
Li7Mn4CoO12,1.2319999999999998
K2AgP,1.232
K6MnSe4,1.232
CaTaNO2,1.2321999999999995
Si(HgO2)2,1.2322
Li3V3P8O29,1.2322
Ti3Fe5O12,1.2325
Li9Mn7O16,1.2325
KH25C13(NO4)2,1.2326
Li7Mn2P7O24,1.2326
NaMnO2,1.2326
PtI2,1.2328
Sr2Bi2Se3O2,1.2328999999999994
BaSrMn2Al9PbO20,1.233
Zn4Ni5(TeO6)3,1.2330000000000003
Mg(ScS2)2,1.2332999999999998
W4NO12,1.2332999999999998
Fe3Pb4BrO8,1.2332999999999998
MnPH2O5,1.2333000000000005
SiSnO4,1.2333999999999996
Na18Mg16Ta8Si9(S3O16)9,1.2334
Pr2MgSe4,1.2334
Sr4MgFe4O11,1.2334999999999998
Mn2Nb4Zn3O16,1.2336999999999998
Mg(IO8)2,1.2336999999999998
Rb4Zr3Se14,1.2338
Sc2PbSe4,1.2338
VP2O7,1.2338
AgSb3PbS6,1.2338000000000005
MgBi2(SbO4)2,1.233899999999999
ZrTl2PbS4,1.234
Si3Bi5N9,1.234
CsZr6MnCl14,1.234
AlHg2SbCl4,1.2341
MoWSe4,1.2341000000000002
Li6V3P8O29,1.2342
Ba2Sr2Mn3O10,1.2342
Be3Fe2(SiO4)3,1.2342
K2VCuS4,1.2343
MgFe6(O2F)4,1.2343000000000002
Li4VP2O9,1.2345
Na4Ca3SiSnS5O24,1.2345
MgCdTe2,1.2345000000000002
Te2PdBr6,1.2345000000000002
LaCuS2,1.2345999999999997
K2Ag(AsSe2)3,1.2346
Cs4Ti3S14,1.2347
Mg(MoO2)2,1.2347
H6SN2,1.2347
K11LiMn4O16,1.2347
Li5Ti2Mn3O10,1.2347000000000006
Li2VSi7O16,1.2348
Na7VN4,1.2348
MgV4(O2F)4,1.2348
Y2ZrS5,1.2348
Lu2CdS4,1.2348
NaS,1.2348
LiVCr(P2O7)2,1.2349
Na2La2Ga2SiS5O24,1.2349
Sr2MgCuO4,1.2349999999999994
Ba7Sn3Te3Se10,1.235
MgFe6(OF)6,1.235
HgAsO3,1.2351
Mg30ZnCoO32,1.2351
MgV2Zn4O8,1.2352
CsRuF6,1.2352
MgTe3WO12,1.2352000000000003
V4O5F7,1.2354
Ca(BiO2)2,1.2355
ZnFe16Ni7O32,1.2355999999999998
K2PtS2,1.2355999999999998
MgP2(WO5)2,1.2356999999999996
Pd(S3N)2,1.2357
NaSrP,1.2357
MgMnZn2WO6,1.2357
Fe5O3F7,1.2357000000000002
Li4CrSb(TeO6)2,1.2358000000000002
Yb2Br2O,1.2358000000000002
KNdInSbO6,1.2359
Ca3(Si4P7)2,1.2361000000000004
Li6V3P8O29,1.2362
Ta2Zn2CrO8,1.2363
NdSF,1.2363000000000004
RbSeBr3,1.2364
BiTeBr,1.2364000000000002
Cd(PN2)2,1.2364000000000006
Na2MnCdFe(PO4)3,1.2365
MgCoO2,1.2365
MgZn2(FeO2)4,1.2365
LiMnV(P2O7)2,1.2365
Li3V3P8O29,1.2366
LiVP3(H7O8)2,1.2366
CaMg30CoO32,1.2366
Fe4Bi2O9,1.2366
Ce2H16S3O20,1.2367
SrCaInSbO6,1.2367999999999997
Cs2BiAuF6,1.2369
ZnC8(NCl2)2,1.2369
V2O3,1.2369000000000003
NaSrZrBiO6,1.2369000000000003
LiLa4CoO8,1.237
Mn2V2O7,1.2371
NaRh(SO4)2,1.2372
Rb2CoF6,1.2372
Te7OsO5F32,1.2372
Li2VPO5,1.2372999999999998
Li24Mn7Cr5O36,1.2372999999999998
Na2CaGe3P4(SO12)2,1.2372999999999998
Li4CoO4,1.2373
CaFe4(PO4)4,1.2373000000000005
LaHo3Mn8O20,1.2373000000000005
Gd(IO3)3,1.2373000000000005
Sb2S2O,1.2374
Li3V3(CoO6)2,1.2374
MnP2O7,1.2375
V3Zn2O8,1.2376
ScAgS2,1.2377999999999996
Li3Mn(OF)2,1.2378
Te4Mo3W(SeS)2,1.2378999999999998
Sr4Cu2O7,1.2379000000000002
La3Mn2Sb3O14,1.2379999999999995
CsTlI4,1.238
AgH12C4Se5N,1.238
MgFe3(PO4)3,1.2381
NbV3O10,1.2381
Te2Mo3W(Se2S)2,1.2381999999999995
Na6PbO4,1.2382
C20Cl3,1.2382
Rb3PuH4O7,1.2382
Na8Mg(CoO4)2,1.2382000000000002
LiTi2Mn3O10,1.2383
MgFe8(OF)8,1.2384
Li4TiV3O10,1.2386999999999997
LaMgFeMoO6,1.2386999999999997
CoPO4,1.2388
Li4TiCo5O12,1.2388
SrV4O10,1.2389
Sm6Ge3S14,1.239
Na2Sc4Si3Sn4(S3O16)3,1.2391
Li2VNiO4,1.2391000000000003
BaRu2Xe5F22,1.2392999999999998
Na3Ag(TeS3)2,1.2393
Li2Mn(BO3)2,1.2393
Na4Ta2Zn2Si3(SO8)3,1.2393000000000003
Ca2SbN3,1.2394999999999996
CuTeSBr,1.2396000000000005
V4As2O13,1.2396000000000005
Tm2MgSe4,1.2396000000000005
Li2TiFe2O5,1.2397
LiMnV(P2O7)2,1.2397
Ce(PO3)4,1.2397
Dy(CuSe)3,1.2397
Cs2ReCl6,1.2397
LiFe8(BO3)8,1.2399999999999998
Sr3InNiO6,1.3497000000000003
Sb6O13,1.3498
KOsF6,1.3498
SrTh2Se5,1.3499
Sm2V2O7,1.3499000000000003
Sr4MgNi2(ClO3)2,1.3499000000000003
U(BiO3)2,1.3499000000000008
Li4Ti2V3Co3O16,1.3499999999999996
Sr2CrSbO6,1.3499999999999996
K3Ga3As4,1.3501
Sr2GdMoO6,1.3501000000000003
Na2(ReS2)3,1.3502
CsAu(SO4)2,1.3503
Sr4TiAs4,1.3504999999999998
MgFe6(OF)6,1.3505
LiTiFeO4,1.3508
Li2VGaO4,1.3508999999999998
LiCr3O9,1.351
Na9Zr8Si4(P4O23)2,1.3511000000000002
Mg4(MoO4)3,1.3511000000000002
KIn(PSe3)2,1.3512
NbNO,1.3512000000000004
LiVFe(P2O7)2,1.3513
LiVFe(P2O7)2,1.3514
LiV2(PO4)3,1.3514000000000002
Tl3PdBr5,1.3514999999999997
Nb6CdO16,1.3515
Al2Sn2O7,1.3515999999999997
MgFe6(OF)6,1.3517
KTaS5,1.3518
Mg2V3O8,1.3518
Li2U5MoO19,1.3518
Ba4Sr2Dy2Co4O15,1.3518999999999997
NaCa2Nb2P3(SO8)3,1.3519
Ba4Sr2Sm2Co4O15,1.3519
LiFeSnO4,1.3519
LiCr2O3,1.3519000000000003
UAg2P2H2CO8,1.3522999999999998
TiMo(PO4)3,1.3522999999999998
Ba11W4O23,1.3523
O2,1.3523000000000005
Mo3(PO4)4,1.3523999999999998
Cs2InAsCl6,1.3524
LiMnF4,1.3524
HgSO4,1.3525
Sr5(GeN3)2,1.3525
C20Cl18O,1.3525
CsNpMoO7,1.3526
Na2Nb2Ga6Si3(S3O16)3,1.3526000000000002
K3Sb5O14,1.3527
MgV4(OF)6,1.3528
TlCuAs2PbS5,1.3528000000000002
LiV2Zn2(SiO5)2,1.3528000000000002
MgFe6(OF)6,1.3529
Bi6PtBr10,1.3531
NaHgH2Cl3,1.3531
KNb4Ag(PS10)2,1.3531999999999995
Cs2NaCrCl6,1.3532
AsSe2S(NF3)2,1.3533
ReSeS,1.3533999999999995
YV3O9,1.3534
Mg14TiCuO16,1.3534999999999997
Hg3(TeI)2,1.3534999999999997
K2PdBr3Cl,1.3535
ZnMoO3,1.3535999999999997
Ti(FeO2)2,1.3536999999999997
Li2VF6,1.3538
Na42Mg20Nb4Si15(S7O48)3,1.3539
CsNdHgSe3,1.3539
Li2Cr4O13,1.3539000000000003
Li2VOF3,1.354
La4As2S5O4,1.354
KBi(PSe3)2,1.3545
Li4Ti2V3Co3O16,1.3546
Cs2MgMo2(O2F3)2,1.3547
Gd2SeO2,1.3547000000000002
LiFe2(SO4)3,1.3547999999999998
Li9Mn5O12,1.3548
CaMoAsO5,1.3548
Cd4GeS6,1.3548999999999998
Sr(SbO3)2,1.3549000000000002
MgMn4Cr2O12,1.3549000000000002
LiVF3,1.355
MgMn3FeO8,1.355
Sm2MgV2O8,1.355
Li5V5(FeO6)2,1.355
Ti(PCl6)4,1.3551
Na2CaTi3Si2(SO6)4,1.3551000000000002
Li2V4OF12,1.3552
Te3Cl2,1.3552
Ba2Ti5(Bi2O9)2,1.3552999999999995
Ta2CrNO5,1.3552999999999995
CsPd2Cl5,1.3553
BaSr3Mn3O10,1.3553000000000002
Ca(FeO2)2,1.3556
RbMgV5(H8O11)2,1.3558
Rb2FeH2Br5O,1.3559
V3(O2F)2,1.3560000000000003
K2CdO2,1.3562
Li3VS4,1.3562
RbYTe2,1.3562999999999996
LiNbFeO4,1.3562999999999998
RbNbO3,1.3563000000000005
ZnB2(NF2)4,1.3563000000000005
Li9Mn2Co5O16,1.3563999999999998
Na2HF4,1.3565
Ag3CN(ClO5)2,1.3565999999999998
LiVOF3,1.3567
Hf2N2O,1.3567
TiVO4,1.3567
Mg2CuPd,1.3568
ZnPdF6,1.3568
Cs2MoSe4,1.3568
Na6Mg8Nb16Si15(S7O48)3,1.3568000000000002
CrPO4,1.3568000000000002
SnPbO3,1.3568999999999996
VPO7,1.3569
MgTi2Tl2W2(O5F)2,1.3569
Li5Mn2CoO8,1.3569
Sr(ScS2)2,1.3569999999999998
Na6Sn2O7,1.3569999999999998
ErBi2BrO4,1.3570000000000002
AlSb3Pb4O13,1.3571999999999995
CaAgAsO4,1.3571999999999995
Li5Fe2P2(CO7)2,1.3572
Li3V2(O2F)2,1.3573000000000002
KTlSe2,1.3576
Na3CaGe(PO4)3,1.3577
MgV5O12,1.3577
Sr2Re6S11,1.3579
La5C2I9,1.3579
Sr(DySe2)2,1.3579000000000003
Zn4Sn5(TeO6)3,1.3579999999999997
Ba3Al2(Sb2O7)3,1.358
LiFe8(BO3)8,1.3581000000000003
BaCrN2,1.3581999999999996
Li5Fe8(BO3)8,1.3583999999999998
AgHgSI,1.3584
RbBiF3,1.3584
NaGdSe2,1.3585
Li6V3P8O29,1.3586
Ba5LiGaN3F5,1.3588000000000005
Ti(ZnN)4,1.3588999999999998
Li3Fe4(BO3)4,1.3589
Ba2HgS3,1.3589999999999998
Gd3MgAlS7,1.3590999999999998
Cu2WS4,1.3590999999999998
Th2SeN2,1.3591999999999995
NaLaInSbO6,1.3592999999999993
CaC2,1.3593
BaPrInWO6,1.3593000000000002
Cs10Si7O9,1.3593000000000002
K2PtC4(IN2)2,1.3594
TaCuO3,1.3594
Ba2GdGaSe5,1.3594000000000002
Li5SbS4,1.3595000000000002
MgV2P2(HO5)2,1.3596
Co9Te5(PbO5)6,1.3596000000000004
Na2Si5Sn8S7O48,1.3598
MgHg8(W2O7)4,1.3598
Mg(FeO2)2,1.3598000000000008
Si,1.36
SiO2,1.36
Li5Mn3F14,1.3601
TmBi2BrO4,1.3602
Li4V5Sn3O16,1.3602000000000003
Mg(ScS2)2,1.3602999999999996
C,1.3604
NbCu3Se4,1.3604000000000005
Na9Ca11Nb(SO4)18,1.3605
LiV2OF5,1.3606
AuCl3,1.3606
CsPrZnTe3,1.3607
CaH4C4(SO)4,1.3607
AlFeO3,1.3607999999999991
MgFe3(PO4)3,1.3607999999999998
Ru(CN)2,1.3609
SmZnPO,1.3609
SrCaCeNiO6,1.3610000000000002
Li5Fe8(BO3)8,1.3611
TaNb(AgO3)2,1.3613
Ce(WO4)2,1.3613
Rb2WSe4,1.3613
Fe3H6C6(N3Cl4)2,1.3614
CaFe3O5,1.3614000000000002
AgTeO3,1.3614000000000002
Ba7V6CoCl4O21,1.3615
MgFe6(OF)6,1.3616
AgMo3P3O16,1.3616
Hg7(P2Br3)2,1.3616
LiTiO4F3,1.3617
TaIn3O7,1.3617
Cs2PdCl6,1.3617
Li3VO3F,1.3617
LiCo(PO3)4,1.3617
LiV2F7,1.3617
Na30Ca16Nb8Si15(S7O48)3,1.3618
Zn2SeS,1.3618
LiV2O2F3,1.3618
LiFe2(PO4)2,1.3619
MnZnF5,1.3619
Sr3Ga3N5,1.3619
Ta2Tl4S11,1.3621999999999996
VCrO3,1.3624
Sb8Pb5S17,1.3624999999999998
Li2VCr2O6,1.3626
NaMgGeP(SO6)2,1.3626
Na2Ga2Se3,1.3626999999999998
YSi2Ag3O7,1.3627999999999998
Cs2P4Pd3O14,1.3628
Li2VFeP2(HO5)2,1.3628
LiVF5,1.3628999999999998
MgVMoO5,1.363
Na2Y2Ta2Si3(SO8)3,1.3630000000000002
Rb2NaCrCl6,1.3631
LaAgSO,1.3631000000000002
TeW2Se2S,1.3632
Pr3CuSiSe7,1.3632999999999995
Li9Mn2Co5O16,1.3632999999999995
V4(OF3)3,1.3633000000000002
CaLaMnFeO6,1.3633000000000006
Li3Ti2Fe3O10,1.3634
RbMgCu2H3(SO5)2,1.3634000000000004
Re3S4Br,1.3634000000000004
CrHgO4,1.3635
Cs2S3,1.3635
Na3SrTiNb3O12,1.3636
Na2Ca2Ti6Si3(S3O16)3,1.3636
La12Sn5S28,1.3636
Li2MoO3,1.3636
VBP2NO9,1.3636
CaCoF5,1.3636
NaCaZrBiO6,1.3637
LiVSn3(PO4)6,1.3638
Ba4Mg(Fe2O5)2,1.3638000000000003
LiCuCO3,1.364
Mg14MnVO16,1.364
Na6Si7Sn4Ge4S5O48,1.3640000000000003
La2MgNiO6,1.3640999999999996
LiVCoO4,1.3641
LiBi(BO3)2,1.3642
Li6V3P8O29,1.3642
Cs2Ti(CuSe2)2,1.3642000000000003
LiCrSnO4,1.3642000000000003
BaEr2CoO5,1.3642999999999996
Te2Mo3W(SeS2)2,1.3642999999999996
Ba6Sn7S20,1.3643
Na2PtO3,1.3643000000000003
Rb6HgSe4,1.3644
Na2W2O5,1.3644999999999996
Cu3P8(Se2Br)3,1.3645999999999998
PrZn(WO3)2,1.3645999999999998
U(PbO2)3,1.3646000000000005
Zn7(MoO4)6,1.3647
Li2VOF3,1.3647000000000002
Li4CoO3F,1.3648
SrLiP,1.3648000000000002
Li3Co4SbO8,1.3648999999999996
Li7Fe3(SiO6)2,1.3649999999999998
Li2VOF3,1.3650000000000002
Dy2Sb2O7,1.3651
ScFeO3,1.3651
CsNdZnTe3,1.3651
TbCu(WO4)2,1.3653
SiPbN2,1.3653000000000004
Mg3CO4,1.3654000000000002
As2O5,1.3654000000000002
Na2Sc6Nb2Si3(S3O16)3,1.3654000000000002
Ca4Sn5(TeO6)3,1.3655
LiV2OF5,1.3657
CoSeO4,1.3657
Ba2YAg5S6,1.3657999999999997
Na3CuO2,1.3658
Li32Ti13Cr3O48,1.3658
Li4TiCr2Ni3(PO4)6,1.3658
BaP3,1.3658
Fe3(OF2)2,1.3659
Li10Sn(PSe6)2,1.3659
TiFe5(PO4)6,1.366
LiMn(PO3)4,1.366
SrMnV2(AgO4)2,1.366
NaTaZn3(SO4)6,1.3662999999999998
MgV4P2O13,1.3662999999999998
Hg3AsO5,1.3663
Na6TiZn3Si2(SO6)4,1.3663999999999998
LiNiSbO4,1.3664
Fe5O3F7,1.3664
SnHg6(As2Br3)2,1.3664
HoBi2BrO4,1.3664999999999994
Na10Mg2Si7Ge6S5O48,1.3664999999999998
Ba(ErSe2)2,1.3665000000000005
K2Ce(NO3)6,1.3666
Na7Co3O8,1.3666999999999998
Li10BrN3,1.3667
LiV2OF5,1.3667000000000002
Sr3MgFe2O7,1.3667999999999996
DyBi2IO4,1.3667999999999996
Li2VFeP2(HO5)2,1.3668999999999998
SiC,1.3669000000000002
NaGd3GeS7,1.367
Na7Ca2SiSn2P5O24,1.367
Ba4In2O7,1.3670999999999998
SbS2N,1.3671000000000002
Te2MoW3(Se2S)2,1.3671000000000002
Na2In2GeSe6,1.3672000000000002
Si6Sb3N11,1.3672999999999993
Gd3AlZnS7,1.3672999999999995
AuSeClO3,1.3674
Li2VCrO4,1.3675000000000002
La4MnO8,1.3675999999999997
V3Zn2O8,1.3676
SiO2,1.3676
Sn3TePb4O13,1.3676000000000004
Rb2MgFe4O7,1.3677
Li4Co2OF7,1.3677
Li3Fe3(PO4)4,1.3678
MgFe4(OF)4,1.3679
MgNiO2,1.3679
Li2VFeP2(O4F)2,1.368
AsSe,1.368
LiV2OF5,1.3681
Ca(CrS2)2,1.3682000000000003
K2MnSO4F3,1.3683999999999998
Li5MnO4,1.3683999999999998
Li2MnO3,1.3683999999999998
Rb4P2Se9,1.3685
RbHS,1.3685
ZnCdS2,1.3685999999999998
Zn3Si4(SnO7)2,1.3686999999999996
Rb4Ge(PSe3)4,1.3687
KPr(ClO)4,1.3687
Li3Mn(PO4)2,1.3687000000000002
Te6MoW3Se2,1.3688000000000002
LiV2OF5,1.3689
Ca3UN4,1.3689
SrLaTiMnO6,1.3689
Cs2ZrSe3,1.3691
LiFeSO4F,1.3691
Na14Ca4Nb4Si9(SO16)3,1.3691
Li9Mn2Co5O16,1.3691999999999998
AuXe2F17,1.3692000000000002
Rb2Pt3S4,1.3693
Li2Ti(FeO3)2,1.3694000000000002
LiMnVO4,1.3694000000000002
K2Mg(CoO2)2,1.3695
MgV5(MoO5)5,1.3695000000000002
Nd2MgS4,1.3695999999999997
KAgPSe3,1.3696000000000002
VCd2N3,1.3697
K2PdO2,1.3697
TiNb2O7,1.3697999999999997
Cs2AgIrF6,1.3698
Ta2VZn2O8,1.3698999999999997
LiMo(PO4)2,1.3699
Ag2GePbS4,1.3699000000000003
TmFeO3,1.37
Rb2Th(PSe3)3,1.37
Li4V3(FeO5)2,1.3700000000000006
AsC3N3Cl3F7,1.3701
VOF2,1.3701
Ba2SbN3,1.3703000000000003
Sr2Sb2O7,1.3703999999999996
MgV6(HO3)6,1.3704
Hg6S4IBr2Cl,1.3705
Fe2OF3,1.3708
NaTiCu3Se4,1.3708000000000005
Gd2MgS4,1.3708999999999998
NaLi2FePCO7,1.3709
Nd4Se3N2,1.3709999999999996
HoBi2ClO4,1.3709999999999996
Sb16Cl4O21,1.3710000000000004
Ba2TbMgSbO6,1.3710000000000004
CaPr(WO3)2,1.371099999999999
Na3MoO4,1.3712
Sm3S3N,1.3713000000000002
KGeN,1.3713999999999995
LiV2F7,1.3714
Na2Mg5Ge3(SO4)12,1.3714
CsDyZnTe3,1.3714000000000004
Li4Cr(WO4)3,1.3714000000000004
ErTlO2,1.3714999999999995
CrTe(WO6)2,1.3715000000000002
K3Dy(AsS4)2,1.3716
Li6V3P8O29,1.3717
TiNF,1.3718
Cs2CdSn3Se8,1.372
Na15Mo7N19,1.3721
Th6OF24,1.3722
BaMgV2Ni3(HO5)2,1.3722
Sr4MgIn2(SbO6)2,1.3722000000000003
Li2TiCo2O5,1.3723
Na4LaSi2GePO12,1.3723
MgZn3Cu2H14(SO9)2,1.3723
KCaEr2CuS5,1.3723000000000003
Li3Nb(CoO2)4,1.3723999999999998
Cs2PbO3,1.3724
Nb2AgPS10,1.3724999999999996
Li2Fe2P2O9,1.3724999999999998
Ca9B2(CCl2)4,1.3725999999999998
Li6NiCl8,1.3726
MgV2O4,1.3726000000000005
SbNF4,1.3727
ErFeO3,1.3727
Ba2As2S5,1.3727
Cs2InSbCl6,1.3727000000000005
CsHfCu3Se4,1.3728
MgZn2FeWO6,1.3728000000000002
TeMoWSe3,1.3728999999999996
Na8Mg(NiO4)2,1.3729
Na2Si4NiO10,1.3731
Fe5(OF4)2,1.3733000000000002
BiWO4,1.3733000000000004
Y2TeO6,1.3733000000000004
Li5Fe8(BO3)8,1.3735
Ta2CrNO5,1.3735
YMg6BiO8,1.3735
InCuAu2,1.3736000000000002
Te4MoW3Se4,1.3737
NiPO4,1.3737
Cr8O21,1.3738
DyBi2ClO4,1.3739
AlPI8,1.3739
NbP4(S2Cl)5,1.3739
NaCrF6,1.374
H4N2O3,1.374
Li2CoOF3,1.3741
LiFe4(BO3)4,1.3741
LiV2O2F3,1.3741000000000003
La3NbSe2(O2F)2,1.3741000000000003
Pr4Se3N2,1.3742
La5S4NO2,1.3743
InBi37Br48,1.3743999999999998
Li3Mn2O5,1.3744999999999998
Li32Mn13Cr3O48,1.3745
Na4Mg(CoO3)2,1.3745999999999998
K2Al11Si13(Ag3O16)3,1.3746
Fe9(PO4)8,1.3746000000000005
Li2VFeP2(O4F)2,1.3746000000000005
LiMnV(P2O7)2,1.3746999999999998
Li2VF4,1.3747
K16Zr12Se61,1.3747
RbPbIO6,1.3747
KInSnSe4,1.3747000000000005
CdP14Pb,1.3747999999999996
Cs2FeNi(CN)6,1.3748
Ca5Hf2N6,1.3748
Cs2KTlBr6,1.3749
MgV2O4,1.3749000000000002
ErBi2IO4,1.375
Ti(PbN)4,1.3751000000000009
TeWSe,1.3751999999999995
RbPrNb2O7,1.3752
Mg14FeBO16,1.3752999999999993
Li3Fe5(PO4)6,1.3752999999999995
Mg14FeBiO16,1.3754
BaC2,1.3754
B2AsP,1.3755999999999995
Cu3P8(Se2I)3,1.3756
TiNbBi5WO15,1.3757
SmFe3(BO3)4,1.3757999999999997
Sb4Pb5S11,1.3758
Hf6CCl14,1.3758
TeAs(Se2F3)2,1.376
Na6Mg(NiO3)2,1.3761
NaLa2In2PS5O24,1.3761
Li2VO2F,1.3762999999999996
Li5Fe2P2(CO7)2,1.3763999999999998
LiVSO4F3,1.3764
Li3Fe3(BO3)4,1.3764999999999998
CsHoZnTe3,1.3765
Ba(DySe2)2,1.3765
Bi3Sb5Pb4O21,1.3765999999999998
LiMnV(P2O7)2,1.3767
MgBiSbO5,1.3769
Na5SrTaP4,1.3769
ErBi2ClO4,1.3769000000000005
KTi2BiO6,1.3770000000000002
BaErAgSe3,1.3771
MgFe12(OF)12,1.3773
MgFe4(OF)4,1.3773
DyVO3,1.3773
Cs2TlBiI6,1.3773000000000002
NaRhO2,1.3773999999999995
K2OsO5,1.3774
LiV3Zn2O8,1.3774999999999995
Li4MnCo2O7,1.3776000000000002
Sm3ReO8,1.3776000000000002
Cu2WO4,1.3776000000000002
Ce2Te7Cl2O17,1.3777
Li2MnP3O10,1.3778
Sr2YAlFe2O7,1.3778999999999997
LiFe2(BO3)2,1.3779
TlGeCl3,1.3779
Mo2SBr2,1.378
Rb2HgPSe5,1.3781
NaNbO2,1.3781
CsInBr3,1.3782
LiMn2OF3,1.3783
Na2Mg3Ge(SO4)6,1.3783000000000003
Li4VCr3O8,1.3783999999999996
Li15Cr15SiO32,1.3783999999999996
Cs4Sb14S23,1.3784999999999998
LiCaN,1.3784999999999998
Mg7Mn5O12,1.3786999999999994
Li6NbFe5O12,1.3786999999999998
Li9Mn2Co5O16,1.3786999999999998
Li7VO5F,1.3787
Pr2MgS4,1.3788
LiFeSiO4,1.3788999999999998
Al2ZnSe4,1.3788999999999998
SrMg6AlO8,1.3788999999999998
Si2H2O3,1.3789000000000002
CsInHgS3,1.3790000000000002
Sr3LaTa2(FeO6)2,1.3790000000000004
Li4V5Cr4O18,1.3790999999999998
PH11S(NO4)2,1.3791
MgFe6(O2F)4,1.3791
Rb2MgNb2(TeO6)2,1.3791000000000002
MgV4O5F7,1.3792
Li2Mn2P2(H4O5)3,1.3793
CaCu2(WO4)2,1.3795000000000002
MgMn(GeO3)2,1.3796
Sr8MgP4(IO4)4,1.3797
LiMnSbO4,1.3797
Li3V4O11F,1.3797
Li5Fe8(BO3)8,1.3798
Fe2C2O7,1.3798
Nb3ZnFe3(O6F)2,1.3799
Li6TiFe3(PO4)6,1.3799
Li3SbS4,1.3799
Rh2(Se3Br2)3,1.3799
Li3MnB8O15,1.3799
Sb2Te3(SeF4)3,1.38
MgCdHg2,1.38
Na3SmMn3(AsO5)3,1.3801
K3Nb2S11,1.3803000000000003
Ba(TmSe2)2,1.3803999999999998
LiVPO5,1.3803999999999998
MgV4(PO5)4,1.3806
MgCo4(Te2O5)4,1.3810000000000002
LiV(TeO4)3,1.3811000000000004
LiMo(PO4)2,1.3812
HfHg4(AsCl3)2,1.3812000000000002
CaTi2FeO6,1.3812000000000006
V3OF7,1.3813
Ti3(BiO3)4,1.3813000000000004
Ba6MgSc2C2(O3F7)2,1.3813999999999995
Na10Zn3Si6Sn5(SO8)6,1.3813999999999995
Fe3P3O11,1.3814
Na6MgSi6Sn7(SO8)6,1.3814000000000002