formula,band_gap (MP)
KCuTeO6,0.7795
Bi4Au2O9,0.7795000000000005
Li6MnV3(PO4)6,0.7795999999999998
Li2CoPCO7,0.7795999999999998
Ba(PO4)2,0.7797
TeRhCl,0.7797000000000001
Sm2Ti2S2O5,0.7798999999999996
Na2CoO3,0.7799
Li12VCo3P4(CO7)4,0.7799000000000005
Na6Mg2Si5Sn6S7O48,0.7799999999999998
Li4Mn3SbO8,0.7800000000000002
Li2VCr3O8,0.7802000000000002
Mg2Mn3O8,0.7802000000000002
Rb2CuP4(HO2)8,0.7803
Li3V3CoO8,0.7804000000000002
Rb(GeAs)3,0.7805
KMnH5(SO5)2,0.7805
Bi2Pt2O7,0.7805
Ga2AsP,0.7805
LiMnOF2,0.7805000000000001
Mn(O2F)2,0.7807
Ba3MgMn3O9,0.7807000000000004
NaCrSe2,0.7807999999999997
Li6V3P8O29,0.7807999999999999
MgTe3WO12,0.7808999999999999
BaP2O5,0.7808999999999999
MnZn2Si(HO3)2,0.7808999999999999
Sb6Pb6S17,0.7809999999999997
TbEu2TaO6,0.7809999999999997
CsCu5S3,0.7810999999999995
MgV4O8,0.7811999999999997
Cr5O7,0.7811999999999997
Na2In4Si3Ge4(S3O16)3,0.7812000000000001
Li4Co3O7,0.7812000000000001
Co2SiO4,0.7812999999999999
Na6FeCl8,0.7812999999999999
GaCuO2,0.7812999999999999
CoPHNO4,0.7814
Ti3MnFe2(PO4)6,0.7815000000000003
MoWO6,0.7816000000000001
MgCr4O8,0.7816000000000001
Sr2CuH2(SeO3)4,0.7816000000000003
AgBiO2,0.7818
Li2TiFeO4,0.7818000000000005
Li4MnF8,0.7818999999999998
MgTe3WO12,0.7819000000000003
MgCuPO4,0.7819000000000003
Li3(CoO2)4,0.782
Ir2S3,0.7821000000000007
Li3V5O8,0.7822000000000005
OsOF5,0.7822999999999998
Yb2MgCu(GeO3)4,0.7822999999999998
VFe3(CuO2)4,0.7823000000000002
K4MgV4O10,0.7824
Li2VFeO4,0.7824999999999998
Li(NiO2)2,0.7825000000000002
Li7V3P8O29,0.7826
CuSb2BrO3,0.7827999999999999
Be6Al4Si12O37,0.7827999999999999
Na8Ga42O67,0.7827999999999999
Na3(NiO2)2,0.7828000000000002
B4N2O11,0.7828999999999999
TcCl4,0.7828999999999999
LiMnCo3O8,0.7829000000000002
SbRuSe,0.7829000000000006
Sr3CaTi2Mn2O10,0.7831000000000001
LaMnFe3(BiO4)3,0.7831999999999999
CeSe2,0.7831999999999999
LiNi2(PO4)2,0.7832999999999999
CeSe2,0.7833
Mg(CoO2)4,0.7833000000000001
VO2F,0.7834
AgBi2S3Cl,0.7834000000000003
Li4Nb3Co3(TeO8)2,0.7834999999999996
MgNiHO2,0.7835000000000001
Bi24Ru3Br20,0.7835999999999999
Li5V6O5F19,0.7836
Ca5(CrN3)2,0.7837000000000001
Ga2Ag2SeS3,0.7837000000000001
Th5OF19,0.7837000000000001
MgFe10O9F11,0.7837999999999998
Cr2PO5,0.7838000000000003
K2Na2Nd2MgNb2O10,0.7839
Ba(TmTe2)2,0.7841
K3Ca2Mg10Si16(HO12)4,0.7841
Mo2W(SeS2)2,0.7841000000000002
Nb3(Cl3O4)2,0.7841999999999998
LiNbFeO4,0.7841999999999998
Li7Mn5O12,0.7842000000000002
MgCd,0.7843
V2P3O10,0.7843
P2H19S6N5O2,0.7844
Li4MnCo2O7,0.7844000000000002
Sr(YbSe2)2,0.7845
Ba3(TaS4)2,0.7847
CeSe2,0.7847
Fe5O3F7,0.7847999999999997
Ba(ErTe2)2,0.7848999999999995
Li3Co2(PO4)3,0.7849000000000002
Ba(HoTe2)2,0.7850000000000001
Sn2Sb2S5,0.7850999999999999
Li4Mn2C4SO16,0.7852
Li2Mn3(CoO4)3,0.7852999999999999
MgCrGaO4,0.7854000000000001
MgMn2O4,0.7854999999999999
MgV4O10,0.7854999999999999
Li2Cr3SnO8,0.7856999999999998
MgV4O5F7,0.7857999999999998
TiTeRu,0.7860999999999994
Na18Nb4Zn20Si3(S11O48)3,0.7860999999999998
Li4V3P8O29,0.7861
V4(OF3)3,0.7861
Li3Nd2(N3O10)3,0.7861999999999999
BaSrMg6O8,0.7862999999999998
BiBr,0.7863999999999998
Li9Mn2Co5O16,0.7864
Mn3Sb5(IO3)3,0.7864000000000004
LiCu2P3H8O13,0.7864999999999998
Li4Mn3NbO8,0.7864999999999998
CeRh2O5,0.7865000000000002
SiBHC3NCl2,0.7866
MgMnV4O12,0.7866
Li7Mn2(CoO4)3,0.7867000000000002
Mg3SiO5F,0.7868999999999999
LiLa2Fe2(TeO6)2,0.7869000000000002
Li3Mn(CoO3)2,0.7869000000000002
MgCr2O6,0.787
SnCCl3,0.787
Li2V3CoO8,0.7871000000000001
NaBe3Al2Si6O19,0.7872000000000003
Mg6CdCuO8,0.7872000000000003
Li7Mn4CoO12,0.7872000000000003
Ca(AgO2)2,0.7873
LiMn2F6,0.7874
NiH6(NCl)2,0.7874000000000001
Zn2SbWO6,0.7875999999999994
SrYCoO4,0.7875999999999999
Li4Ti5S12,0.7876000000000003
Li3V3P8O29,0.7877
TiV3O8,0.7877000000000001
V3(P2O7)2,0.7877999999999998
SiPtSe,0.7878999999999996
Tl2SnHgSe4,0.7879
CsCuP3H8O13,0.788
Cs2KAuF6,0.788
Y2Ti2S2O5,0.7881
Mo2(PO4)3,0.7881
MgCo2NiO6,0.7882000000000002
BeSi(AgO2)2,0.7882000000000002
ScAgSe2,0.7882999999999996
Cs2In2Sb3,0.7882999999999996
RbMgCr3O8,0.7883999999999998
Na3V6N11,0.7884
Ba2CaMn2CuF14,0.7884999999999999
V6O7F5,0.7885
Fe4OF7,0.7885999999999997
K3InP2,0.7887
Li5Mn3O8,0.7887
Yb(ZnP)2,0.7887000000000004
Ca3Co2(TeO6)2,0.7887999999999997
NaTe,0.7888000000000002
BaSrMn2O6,0.7890999999999999
SrCoF5,0.7891
Rb2Gd4Cu4S9,0.7891000000000004
CaMg6TiO8,0.7891999999999992
ZnCrBiO5,0.7892000000000001
Ba(LuTe2)2,0.7892999999999994
Bi7RhBr8,0.7892999999999999
Ca4Be4P4O17F3,0.7892999999999999
Cr5(Si2O7)2,0.7892999999999999
NaMgCr3O8,0.7893000000000001
Na2CuH4(C2O5)2,0.7893000000000001
LaIO3,0.7893000000000008
Li2Cr(PO3)5,0.7893999999999999
Sr6Bi2O11,0.7894000000000001
InAg2Au,0.7894000000000001
Li2Ni3BiO8,0.7894999999999999
Ba(BO2)5,0.7895
Na6CoO4,0.7895999999999996
Re(SeCl6)2,0.7896
Gd3CuGeSe7,0.7897000000000003
Pr2Mg(BiO3)4,0.7897999999999996
LaYS3,0.7897999999999996
RbAsO4,0.7898999999999999
Li2TiFeO4,0.79
Li7Mn5O12,0.79
Mg5ZnN4,0.79
Ba(DyTe2)2,0.79
Mg14SiBO16,0.7900999999999998
Na2Zn2SiSn2S5O24,0.7900999999999998
Rb2InCl5O,0.7901
Li3V4(PO4)6,0.7901000000000002
SmMgCrS4,0.7901000000000002
Li4Ti2Mn3Co3O16,0.7902
Mg(FeO2)2,0.7902999999999998
V7Sb4(NO11)2,0.7904
Rb2GaAuF6,0.7904
SrAg2(IO2)4,0.7904999999999998
Sr5(AlSb3)2,0.7905999999999995
Sr2TaMnO6,0.7905999999999995
Hg2SeO5,0.7907
Ba2Mn2CuF14,0.7907000000000001
Ca12ScCo7O24,0.7907000000000002
Li2Mn3(BO3)3,0.7908000000000002
Li4V3P8O29,0.7908999999999999
V4(OF3)3,0.791
Cr(GeO3)2,0.7911
Li4Mn3O7,0.7911999999999999
LiCa2Pt,0.7912000000000001
MgVBr2O,0.7912000000000003
Li10Fe3Sb7O24,0.7912999999999997
LiV2(CO3)4,0.7913000000000001
Li7(SbS)2,0.7913000000000001
V12PbO30,0.7913999999999999
LiMn3O6,0.7913999999999999
LaSO5,0.7914000000000003
NdCoO3,0.7914000000000003
Li7Mn4CoO12,0.7915000000000001
LaP7,0.7915999999999999
Mg30AlCdO32,0.7916000000000007
Mg(CoS2)2,0.7916999999999996
K2Te2Pt,0.7917000000000001
Fe2OF3,0.7917000000000001
MgV3OF11,0.792
Yb2Se3,0.7920999999999996
LiMn3CrO8,0.7921
MgCu2GeS4,0.7922000000000002
HXe2F15,0.7923
Ag7PSe6,0.7925
CeSe2,0.7925000000000002
MgNi(TeO3)4,0.7925000000000004
LiCuS,0.7925999999999993
SrTiN2,0.7925999999999997
Li7V3P8O29,0.7926
Li3FeSi2O7,0.7926000000000002
Fe5O3F7,0.7926000000000002
MgSbS2NCl6,0.7927
ZnHg3Se3Br2,0.7927
Li7Ni(O2F)2,0.7928000000000001
K2Ag6Sn3S10,0.7928000000000002
Rb4Mg(WO4)2,0.7928999999999999
Tl2CuH12(SO7)2,0.7928999999999999
LiMn6(OF2)4,0.7929
Tl8Cu4F11,0.7930000000000001
Li2Cu(Si2O5)2,0.7930999999999999
MoWSeS3,0.7930999999999999
Ca(MgSb)2,0.7931000000000008
Li7Mn4CoO12,0.7932999999999999
ZrCrAgS4,0.7933000000000003
Zr3Sb4Pt3,0.7934000000000001
BaMg3O4,0.7934999999999999
Zr6CI14,0.7934999999999999
SmLuSe3,0.7935000000000003
NaH2SO4,0.7937
Cd(N2Cl)6,0.7938000000000001
Mg2Cr2(SiO4)3,0.7938000000000001
Cs2RbAuF6,0.7939
Sr3MgMn4O12,0.7939000000000003
K3UF7,0.7939999999999996
ErCO4,0.7939999999999999
SrAg2(IO2)4,0.794
Rb3SnP3Se11,0.7940000000000003
Na3V2(GeO4)3,0.7941000000000003
HfMg6AlO8,0.7942
Ba2LiMn2O6,0.7942
Na3OsN2,0.7942
MoWSeS3,0.7942999999999998
MgFe8(OF)8,0.7944
La5Mg2Mn3O15,0.7944999999999993
SrEuNbBiO6,0.7944999999999993
Li7Mn2(CoO4)3,0.7944999999999998
Sr2ZnN2,0.7944999999999998
CeSe2,0.7945
KMnSn3O8,0.7946999999999997
Li7Mn4CoO12,0.7947000000000002
KSb5O13,0.7948
Li3Ni5OF11,0.7948999999999999
Fe3OF9,0.7948999999999999
NaAl6Fe3Si6B3H3O30F,0.7949000000000002
MoSBr,0.7949999999999999
NaPbN,0.7950999999999997
Li4Fe3Sb5O16,0.7951999999999995
Na2FeO4,0.7953
MgCo4(NiO6)2,0.7953000000000001
Tl32Si8O37,0.7955000000000001
Ba7Ca2Mn5O20,0.7955000000000001
Na2P2H3(SO2)2,0.7956000000000001
ZrSO,0.7956000000000003
Ta4P4S29,0.7957000000000001
Li6V3P8O29,0.7957000000000001
Mn3CrO8,0.7959
LiCrPO4,0.7959000000000005
TiS,0.7961
Te6Mo3WSe2,0.7961000000000005
TbCO4,0.7962
TiZnP3WO12,0.7962000000000002
ScMn3(BiO3)4,0.7962999999999996
Ca2MnGaO5,0.7963
TlBCl2,0.7963
Li7Mn4CoO12,0.7963
ErAgS2,0.7963999999999998
Rb3Ge7HO20,0.7964
Pr5(Mo16O27)2,0.7964000000000002
La4NiO8,0.7965
Na5FeS4,0.7966
MgMn2CoO6,0.7966000000000002
Na4Ga4Si19,0.7966999999999995
GaSbO4,0.7966999999999995
HfTlCuS3,0.7967000000000004
Ca2CoO3,0.7968
Cs4CO4,0.7968000000000002
La2Ta3(SO4)2,0.7968999999999999
SrP2,0.7968999999999999
MoW3(SeS)4,0.7970999999999999
Ba2MgMo4(P2O7)4,0.7971999999999992
BaLuCo4O7,0.7972999999999999
LiFeP2O7,0.7974999999999999
Li4V3P8O29,0.7975
ZrCrAgS4,0.7975000000000003
Ba3Co(CN)3,0.7976999999999999
CsMg14MnO16,0.7978000000000005
Mo2W(SeS2)2,0.7979999999999998
Mn(SiO3)2,0.798
Mg(InSe2)2,0.7980999999999998
Zn3Si3(WO6)2,0.7980999999999998
VH10S2(NO4)2,0.7981
MgFe6(OF)6,0.7981000000000003
FeAs(H2O3)2,0.7982000000000001
Li8Nb2S9,0.7982999999999998
Sr4Mg(SO4)4,0.7983000000000002
AsPPt,0.7984
K3Np(MoO5)2,0.7984
Li6VFe5O12,0.7984
Ru6C17S2O17,0.7986
MgTi3V5O16,0.7986000000000004
PtC4(NCl3)2,0.7987
Li6SbS2,0.7987000000000002
Li4Ni3Sb5O16,0.7988
Na2Sb4O11,0.7989000000000006
CaCr2O4,0.7989999999999999
LiFe2(BO3)2,0.7990999999999999
Li5Mn2Co3O10,0.7991000000000001
CoHgC4(SN)4,0.7991999999999999
CeSe2,0.7992000000000001
Li3MnV4O12,0.7992999999999999
Hg,0.7993000000000001
K2TiSi3O10,0.7994000000000001
Dy5C2Br9,0.7994000000000001
K4Ba2SnP4,0.7994999999999999
NaMgFe(SO4)3,0.7996
Pb3(IO6)2,0.7997999999999998
NaMg2Fe3P4(H9O13)2,0.7998
Cs2CrCl5O4,0.7999
KGd2CuSe4,0.7999
BiSO6,0.8
MnF3,0.8001
Li3V2P4(HO8)2,0.8002
Li2Cu(PO3)4,0.8002999999999998
Fe4OF7,0.8003
Pt3I8,0.8003999999999998
Mg30SiCO32,0.8003999999999998
MgV4(PO5)4,0.8005
Li9Mn2Co5O16,0.8005999999999998
RbLiH12Se3N4,0.8006
HgSN3,0.8006
BeSiP2,0.8007
Li4V3P8O29,0.8007000000000001
MgFe4(O3F)2,0.8007999999999997
K3FeF3,0.8008
K4UC2O11,0.8009
KV4Ag11O16,0.8009000000000002
Ca(InS2)2,0.8012000000000001
Li4Cu(PO3)6,0.8013000000000001
La2CdTe4,0.8014000000000001
Mn2NiO4,0.8017999999999996
Li5Fe3(SbO5)2,0.8019999999999996
Na2FeO4,0.8019999999999999
KHfZrBiO6,0.802
Mn(SiO3)2,0.802
LiFe(CO3)2,0.8021
RbMg6TiO8,0.8021000000000003
Ba2YMgBiO6,0.8022
Sr2VWO6,0.8022
NdH2C2Cl2O9,0.8022
Li3MnV4O8,0.8022999999999998
TePb,0.8023999999999996
VCuO3,0.8024
Na3Mg(CoO2)5,0.8024999999999998
AgSbTe6S16(OF5)6,0.8025
HfMg14BO15,0.8025000000000002
Eu2NbBiO6,0.8025000000000002
K2AgAsBr6,0.8026
Rb2Ni3S4,0.8026
Rb4Cu8(GeS4)3,0.8026
LiLa2Fe2(TeO6)2,0.8026999999999997
LiFe2(ClO)2,0.8026999999999997
MnH30C6Se5N6,0.8027
Li4V3P8O29,0.8027
Fe6OF11,0.8029000000000002
MnInO3,0.8029999999999999
La2HfSe5,0.8029999999999999
Li5V6O5F19,0.803
InAg3F6,0.8030999999999999
Fe4OF7,0.8031999999999999
Cs7Au5O2,0.8031999999999999
CoP2H15N5O8,0.8032
Cs2HgSe,0.8032000000000001
Li4V2Co3Sb3O16,0.8033999999999999
BeSnAs2,0.8035999999999994
SrCuF4,0.8036
La2MgCo2Sb2(PbO6)2,0.8036000000000003
Li6SbS2,0.8037000000000001
BaEuNbSbO6,0.8037999999999998
SmCoO3,0.8039000000000005
Sr8MgMn6O20,0.8039999999999998
Ho2Mg(BiO3)4,0.8040999999999996
LiMnCo3O8,0.8042
Ca2Cr2O5,0.8042999999999996
FeCuO2,0.8043999999999998
Yb4MgTi2O10,0.8045
Li7Mn5O12,0.8045999999999998
UC2O9,0.8047
MgMn5O9F,0.8047000000000002
Sr2NbSbO6,0.8047000000000004
MgMn3CoO8,0.8047999999999997
Mg3SiO4,0.8048000000000002
CsNiCl3,0.8049000000000002
Ru3C10(NO6)2,0.8049000000000002
MoF5,0.8049999999999999
LaMoN3,0.8050999999999995
HfMg14CdO16,0.8051000000000004
NdLuS3,0.8051999999999997
Cs2TlAgF6,0.8052999999999999
LiYb4Ti2O10,0.8053
V2OF5,0.8053999999999999
Li9Mn2Co5O16,0.8054000000000001
Sr2Fe2O5,0.8054999999999999
RhN3Cl6O,0.8054999999999999
K2NaGaAs2,0.8055000000000001
OsOF5,0.8055000000000001
Ca3PN,0.8055999999999996
La11V12O36,0.8056000000000001
Li4V3P8O29,0.8056999999999999
Sr7SnN6,0.8056999999999999
H30S2O21,0.8057
Sr2Mg(H4O3)2,0.8057000000000003
Mg6SiBiO8,0.8057999999999996
Li4V3P8O29,0.8057999999999998
Li5SbS,0.8058000000000001
CeSe2,0.8058000000000005
V3CoO8,0.8059999999999999
HgTe3H12C4N,0.806
P2Pd2O7,0.8063000000000002
TePb,0.8063000000000002
Li4Cr3CoO8,0.8064
Li4V3Fe3(WO8)2,0.8064
Al2TcPt,0.8066
MnP2O7,0.8066
Li3VS4,0.8067
Cu3Bi2S4Br,0.8068
Sm(ErSe2)3,0.8068999999999997
LiV6O11F,0.8069000000000002
Li9Mn2Co5O16,0.8069000000000002
Cs4Zr3Te16,0.8069999999999999
Sr3TaCoO7,0.8069999999999999
NaSrAs,0.8069999999999999
SbI5F6,0.807
Li5V3P8O29,0.8071
AcBO3,0.8071000000000002
GaHg2SbCl4,0.8072
K5Hf3OF17,0.8072999999999999
Rb2AsAuF6,0.8073000000000001
Li8V3P8O29,0.8073999999999999
CsGa5(HgSe3)4,0.8074999999999999
TeAuBr8,0.8075
MgFe12(OF)12,0.8075000000000001
H12OsSN4O7,0.8076
TeRuSe,0.8076000000000008
SrZr7N10,0.8078000000000001
KMg6FeO8,0.8079000000000001
Sr2MnMoO6,0.8079000000000001
NbVO4,0.8079999999999998
LiCoPO4F,0.808
Rb5Au3O2,0.8081
Mn3(OF3)2,0.8081
Na2Nb2O7,0.8082
Li4NbCo3O8,0.8083
Li4Mn3V3(WO8)2,0.8083999999999998
BaLuCo4O7,0.8084000000000002
Ba3Bi6PbSe13,0.8085
Li4V3FeO10,0.8085
WSeS,0.8086000000000001
Sm3B3O7,0.8086000000000002
GeTe,0.8086000000000002
MgMn2V2(CuO4)2,0.8086000000000002
KMgCr2FeO8,0.8087
BaV2CuO7,0.8088
Li4V3P8O29,0.8090999999999999
Li2Co2P2O9,0.8091000000000002
Mg2MoW3S8,0.8091999999999997
Fe5O3F7,0.8092000000000001
CsLiMnS2,0.8092999999999999
Li3Mn2CoO6,0.8092999999999999
CeBeO3,0.8093999999999992
Fe4OF7,0.8093999999999999
CeSe2,0.8094
PrV2O6,0.8094000000000001
Pr16(Mo3O8)7,0.8094000000000001
LiP,0.8094999999999999
PrLuS3,0.8094999999999999
BaMg14CO16,0.8095999999999997
NaBC,0.8095999999999997
Mn3(OF)2,0.8096000000000001
V6O7F5,0.8096000000000001
K2AgBiI6,0.8096000000000001
MgGa4(WO6)2,0.8096000000000001
YMo3Se2ClO8,0.8096999999999999
K3MnCrO8,0.8097
Li2V3SnO8,0.8097000000000003
Li4V3FeO8,0.8097000000000003
MgNb2(SBr)4,0.8097999999999996
Li9Mn2Co5O16,0.8098000000000001
Na2OsO7,0.8098000000000001
SrLiP,0.8098999999999998
CsC(OF)2,0.8099999999999999
KAuBr4,0.8099999999999999
Rb2Ni(PS3)2,0.81
Li5SbS,0.8101000000000003
Sr2MnNbO6,0.8101000000000003
Cs2KMn3F12,0.8101999999999999
Mg14NbSiO16,0.8102
Mn2P2O7F2,0.8102
MgV4Sb2(PO4)6,0.8102999999999998
V3(O2F)2,0.8102999999999998
Y4(Cu2O5)3,0.8103
Pr3InSe6,0.8104999999999998
Li4Ti5Fe3O16,0.8104999999999998
Na3PH24SO15,0.8104999999999999
VS2N3Cl2,0.8105
Li4Mn3NbO8,0.8105000000000002
Mg(Fe2O3)4,0.8106
KZnCuTe2,0.8106
MnPCO4,0.8106
CaSnS3,0.8106999999999998
Co2As2O9,0.8107
HfMg6CrO8,0.8107999999999995
LiB2O3,0.8109000000000001
Mg2CrN3,0.8109000000000002
Li3V3P8O29,0.8109999999999999
Li2TiCr3O8,0.8110000000000002
Mg14NbSnO16,0.8110999999999997
C,0.8110999999999997
CsAuCl3,0.8112
Cu3Bi2S4Cl,0.8113000000000001
Li7Mn5O12,0.8113000000000001
La3SmV3CrO12,0.8113000000000001
FeCoH18(NCl)6,0.8114
V(PO3)4,0.8114
MgZr(MoO4)2,0.8115000000000001
YMg6MnO8,0.8115000000000006
Ca3Tl4O9,0.8115999999999999
LaCrAgO6,0.8117000000000001
SrCeN2,0.8117000000000001
Ti3Nb2Cr3O16,0.8117999999999999
KNbS2,0.8120000000000003
VFe(P2O7)2,0.8122999999999999
LiCoP2O7,0.8123
K2AlInI6,0.8125
K8SnSb4,0.8125999999999998
Ba3Al2O12,0.8126000000000001
LiCuAg2,0.8126000000000002
ZrO3F5,0.8127
Li4Ti2Nb3Co3O16,0.8127
MgFe10O9F11,0.8127
BaV4O9,0.8127000000000004
K2In12Se19,0.8127999999999997
CoH2Cl2O,0.8128000000000001
CaV2(PO4)3,0.8128000000000002
Li2V3CoO8,0.8129
NaCuPH8C2SO8,0.8129000000000001
Li9Mn2Co5O16,0.8129999999999997
Li3Mn2CoO6,0.8129999999999997
Ca6GaN5,0.8130000000000002
Mg6VSnO8,0.8130000000000006
Mg6TiCO8,0.8130000000000006
BaLaCuTe3,0.8131000000000004
Ca4Bi2O,0.8131000000000004
K5Mn3O6,0.8132999999999999
Ta3SBr7,0.8132999999999999
Mg14NbCO16,0.8132999999999999
ReH8(Br3N)2,0.8133
MnZn4S5,0.8133000000000004
CaCo3(P2O7)2,0.8133999999999997
K3Au3Br8,0.8133999999999999
Sr2CuF6,0.8134
Na3CaAl3Si3CO15,0.8134000000000001
MgMnV4O12,0.8134000000000001
Mg6MnNbO8,0.8134999999999994
Li4V7(PO4)6,0.8134999999999994
UBi4WO12,0.8135000000000003
Li4Mn3CoO8,0.8137000000000003
BaCr4O7,0.8137999999999999
Fe5(OF4)2,0.8138000000000001
Li9Mn2Co5O16,0.8138999999999998
MgVCr2Fe3(PO4)6,0.8139999999999996
Li9Mn2Co5O16,0.8140000000000001
Sr4GeAs4,0.8140000000000001
Y2Pb3N4,0.8140000000000005
MgMn2O4,0.8140999999999998
Li9Mn2Co5O16,0.8140999999999998
Zn4Fe5(P3O14)2,0.8141000000000003
Li6Mn2O5F2,0.8142
YRhO3,0.8142000000000005
Li4VFe(TeO6)2,0.8143000000000002
MgFeO2,0.8143000000000002
MgMn2V2(CuO4)2,0.8143000000000002
CeSe2,0.8144
MnBi12W2(ClO8)3,0.8144
Li7Mn2(CoO4)3,0.8145000000000002
CaMn9CdO10,0.8146000000000004
K2CoCl4,0.8147
AgSnPd2,0.8147000000000002
LiMn3P2(HO3)4,0.8147000000000002
MgFe6(O2F)4,0.8147000000000002
Mn3NiO8,0.8148
Li8Cr3SbO12,0.8148
Mg(WO2)2,0.8148
NbAgO3,0.8148999999999997
K2TlCl5O2,0.8149
MgTiMn5(PO4)6,0.8149
Tl2Se3,0.8149999999999995
H5N2Cl,0.815
MgTi3V5O16,0.815
SiH6CI3N,0.815
Mg14CoBiO16,0.8150999999999993
Na3GeMo3O19,0.8150999999999999
Na5Fe2P2(CO7)2,0.8151000000000002
Na10Ca6Ti2Si3(S3O16)3,0.8151999999999999
CuN5,0.8151999999999999
Li2MgCo3O8,0.8152000000000001
Sm2ReO5,0.8152999999999997
WN2,0.8153
B2PdO4,0.8153000000000001
Mo2P2NO11,0.8154
Cu6GeWS8,0.8154000000000003
CdNCl3,0.8155
As2Ir,0.8155000000000001
BaAlFe4O7,0.8155000000000001
SrYCu3Se4,0.8155999999999999
Fe2O2F5,0.8155999999999999
Li4Fe3WO8,0.8156999999999996
CsNd(SeO6)2,0.8157000000000001
MgMn2(OF)2,0.8157999999999999
Mn2Cr3Sb3O16,0.8158000000000003
Ca3Al2O12,0.8159000000000001
Ba3(SnP2)2,0.8159999999999998
ScCu2Hg,0.8159999999999998
V3SnO8,0.8160000000000003
KTh(SbSe3)2,0.8160999999999996
V3(HO2)4,0.8161999999999999
SrB12O7,0.8162
Ca2TaSbO6,0.8163
Na2Sc2In2SiS5O24,0.8163
VCu3Se4,0.8164000000000002
Mg14SiBO16,0.8164000000000007
K3Mo4CSNO16,0.8165
AsCOF4,0.8165
Mg6TiSnO8,0.8165000000000013
Li5Fe2P2(CO7)2,0.8167
SmCuSe2,0.8167999999999997
Na2Zn2Si3Ge6(S3O16)3,0.817
CaSn2S5,0.8171999999999997
MgV6O5F19,0.8171999999999999
Cu3P4H24C6(NO8)2,0.8172
Li4Mn3V(PO4)4,0.8172999999999995
Li3Co(PO4)2,0.8172999999999999
KNb2PSe10,0.8172999999999999
Cs3TlI6,0.8173
Cs2Cu2Sb2Se5,0.8173000000000004
Ca2Tl2O5,0.8173999999999997
Ni3OF5,0.8173999999999999
Na2Ti3Mn(Si2O11)2,0.8174
CsMgFe(SO4)2,0.8174999999999999
SrZnO5,0.8175
K3Ge4Au,0.8175999999999999
Ba3MnO5,0.8176000000000001
ScZnCu3Se4,0.8176999999999999
K2GeTe4,0.8177000000000001
V10O9,0.8178000000000001
Ba2MgFeReO6,0.8178999999999998
Ba6MgSc2C2(O3F7)2,0.8179000000000003
Nd4Ni3O8,0.8179000000000007
MgZn2(CoO3)2,0.8180000000000001
MgCu2SiSe4,0.8180000000000001
Na4Fe2C4SO16,0.8180999999999999
SnPtS,0.8182
Li5Fe2P2(CO7)2,0.8182999999999998
EuBrCl,0.8183000000000002
In(IO4)3,0.8184
MgAg20(BiO4)4,0.8184
Li3V5O12,0.8186
Fe5(P3O11)2,0.8186999999999999
Sr2SnH18(SeO3)4,0.8187999999999998
Li4Fe3CoO8,0.8188
TmAgS2,0.8188999999999997
LiMn2F7,0.8189
Nd2S3O17,0.8189
Li4Co3Sb5O16,0.8189000000000002
La(Tl3Te2)3,0.819
Na2CuH6C2O9,0.8191
CdSO4,0.8192
Sr2Pr2PtO6,0.8192999999999997
SrNdCoO4,0.8193999999999999
Na3V(MoO7)3,0.8195
CaMnO2,0.8195000000000001
Ca(CdP)2,0.8195999999999999
Na2V9MoH35(N2O19)2,0.8195999999999999
NbI3O,0.8196000000000001
Li7Mn5O12,0.8197999999999999
MgWBr4O,0.8198000000000003
BaTe3,0.8198000000000008
Cs12Nb(In2As3)3,0.8199000000000001
Ca2MnSbO6,0.8200000000000003
Li3V4(PO4)6,0.8201
Na3NpO8,0.8201
FePO4,0.8201
Rb8Mn5O10,0.8201999999999998
LiCo(PO3)4,0.8203
Mn2NiO4,0.8203000000000005
VFe2(CuO2)3,0.8204000000000002
Li7Mn5O12,0.8207
K3Yb(SO4)3,0.8207
DyMg2Cr3S8,0.8209
MgFe4(CoO4)2,0.8209
Sn4Te3Se,0.8209999999999997
V2CuH14C2N2(OF2)4,0.821
KMgH(CO5)2,0.8211
V7O3,0.8212999999999999
AsXe(OF2)3,0.8213999999999997
Mn2VFe3(PO4)6,0.8213999999999999
Cd4SiSe6,0.8215999999999999
LiV4OF11,0.8215999999999999
Ti4(FeO4)3,0.8216000000000001
MgTi2(CoO3)2,0.8216999999999999
Bi4S3N2,0.8216999999999999
MgSc2(FeO3)2,0.8216999999999999
K5NaV2(MoO5)6,0.8217
Ba7Fe6(OF16)2,0.8217000000000001
La7SmCr2(Fe3O10)2,0.8217999999999996
V2OF5,0.8217999999999999
K2CuBiF6,0.8218000000000001
BaCaInBiO6,0.8218999999999999
LiGeSbTe3,0.8220000000000001
MgV4O7F5,0.8220999999999998
Te2MoWSe2,0.8220999999999998
SeBr2,0.8221
WO2,0.8221000000000003
Li4V3P8O29,0.8222
Ca5Mg5P5O21F4,0.8222
Ga7Te10,0.8222
CaB2H2O7,0.8222
Na2Pt(ClO)6,0.8223
MoWSeS3,0.8223000000000003
ScTlO2,0.8223000000000003
NbV3O8,0.8224
YMg6NiO8,0.8224999999999998
K5Na(Ti2Se9)3,0.8225000000000002
Mo3W(SeS3)2,0.8226
MoWSeS3,0.8226999999999998
MgV3SnO8,0.8227000000000002
MoWSeS3,0.8227000000000002
MgV6O11F,0.8228
MgMn3Zn2O8,0.8228
ScCu3HgSe4,0.8228
NiH2(SN)4,0.8229000000000002
CdInCu3Se4,0.823
Mo3W(SeS3)2,0.8230999999999997
Li4V3P8O29,0.8230999999999999
Na2Mg(CoO2)2,0.8232000000000004
Ba4GeAs4,0.8233999999999999
Sr7ZrN6,0.8233999999999999
InBiSe3,0.8233999999999999
LiMnV(PO4)3,0.8234
Tl5Se2Cl,0.8234999999999997
WO2,0.8235000000000001