formula,band_gap (MP)
Ba2H6Ru,1.8699
Li2UWO7,1.87
CoPb2WO6,1.87
Ba2MgVFeO6,1.87
NaMgFe(SO4)3,1.87
LiIO4,1.87
Ba5(GaSe4)2,1.8701
BaMg6FeO8,1.8702
Ba2GaAsSe5,1.8703
Gd4Au2O9,1.8703
TmSeF,1.8704
ZnSn2(PO5)2,1.8704999999999996
NaTi2Ga2P3(SO8)3,1.8705
Na4Fe2O5,1.8705000000000005
MgFe4O5F3,1.8707
CaSn(GeO3)2,1.8707000000000005
InSnCl3,1.8708
LiLa4Ga2(FeO6)2,1.8708
NiH36C12S6(I2O3)2,1.871
Cs2Hg(BSe)9,1.8712
Na4Ti4Si3O22,1.8712
Cs2Li14Pb3O14,1.8713
SbAs3(Se2F3)2,1.8713
NbFe(PbO3)2,1.8713000000000009
LiCd4Ge5HO15,1.8714
La3ReO8,1.8714000000000004
Tb2SeO2,1.8715999999999997
Fe2Te2W(CO)10,1.8716
Sm3SiS6Cl,1.8717
Cr2CdO4,1.8717
Nb4Zn2Si3(SO6)6,1.8717
NaAgH2(SO2)2,1.8718
LiNd2HO3,1.8719
V2Fe3(SiO4)3,1.872
Na3SbI6,1.8721
Tb2S3,1.8721
Li4Ti11O24,1.8721
Ca2CoAs2(HO4)2,1.8722
Tc2O5F4,1.8722
K2H6PtC4N4O3,1.8723
NaAg(NO2)2,1.8723
LiCuCO3,1.8724
NaAlH4,1.8724
BaMn2O8,1.8724
V(WO4)2,1.8724
SrLaMnNbO6,1.8725
MgFe3(OF)3,1.8725
Li3Al2FeO6,1.8726
MgCdTe2,1.8727
Gd2Br3N,1.8727
U3P2(PbO8)2,1.8729
MgV(WO4)2,1.8729
FeHO2,1.8729
CaMgNiH4,1.873
RbMg30CoO32,1.873
La4Ti3O12,1.873
ScBN2,1.873
Ag2MoO4,1.8731
CaV2(PO5)2,1.8731
MgFe2Si2SbO9,1.8731
BaSrLaBiO6,1.8732
TaFeO4,1.8732
Li3Fe2CoO6,1.8732
LiMg30CoO32,1.8732
K2PdF4,1.8732
Cs2LiCr(CN)6,1.8734
FeMoClO4,1.8735
Na2O,1.8736
Hg9(PO4)4,1.8736
Na3LaTiSi(PO6)2,1.8737
TaZn2BiO6,1.8737
Na5La2Nb2Si3(PO8)3,1.8738
Li2VFe(P2O7)2,1.8738
MgFe2(BiO3)2,1.874
Sr2CoWO6,1.874
Li3VCr2O6,1.874
Sm6Cd(SiS7)2,1.8741000000000003
BaLa3TiCr3O12,1.8743
LiFeP2O7,1.8744
SnP2O7,1.8744
AlSBr3N,1.8744
Li2VCrP2(O4F)2,1.8744
RbI3,1.8745
Na10La4Nb4Si9(SO16)3,1.8745000000000005
Li2MoP4O13,1.8746
Na2Mg(SbO3)2,1.8746
VBO3,1.8747
Na4CaGe3(PO4)6,1.8747
MgCr2(SbO4)2,1.8748000000000005
LiV3OF11,1.8749
Ca2CeO4,1.875
MgFe2(NiO2)4,1.8751
Bi2MoO6,1.8751999999999995
ZrCuH8C2NCl6,1.8752
Li2S,1.8754
LiV2OF5,1.8756
CaGa4(WO6)2,1.8757
YbMoClO4,1.8757
Na7Ca2Nb2Si3(PO8)3,1.8758
Rb2S5,1.8758
NbCr(SnO3)2,1.8758
Li3ZrNb(TeO6)2,1.8759
Er3CuSiS7,1.8759999999999997
Ba2NdBiO6,1.876
CaMg30SiO32,1.8760999999999992
Ca2CrO4,1.8761
SrTiFe4Bi4O15,1.8761
Hg2C(NCl)2,1.8762
MgV(Si2O5)2,1.8762
Li5AuO4,1.8762
Li2NiSnO4,1.8763000000000003
K2Fe2As2O9,1.8765
Zn2GeO4,1.8766
V2Ge(O2F)2,1.8766
CaSnS3,1.8767
Ca2Fe3Sb(PO4)6,1.8767
LiCaAs,1.8768
Cs2CoAgF6,1.8768
Na2FeAsCO7,1.8771
La17Al4(Si3N11)3,1.8771000000000004
K2ScCuCl6,1.8772
LiVF4,1.8773
K2GdNb5O15,1.8773
Si9C4NO18,1.8774
Dy2MoO6,1.8776
Mg30BiBO32,1.877699999999999
RbMg30BiO32,1.8777
SeN,1.8778
Ag6Mo10O33,1.8778
Sb4S5Cl2,1.878
AlSeBr3N,1.8781
ZnFePO5,1.8781
CuW3Br7,1.8781
Na6Ca4Ta20Si21(S5O48)3,1.8782
Li2MnCl4,1.8782
UO3,1.8782999999999996
Er2MoO6,1.8785000000000005
Te2MoW3(Se2S)2,1.8788
Sr3BCNCl2,1.8788
LiU4As3O20,1.8788
U3Te5(PbO4)8,1.8788
Na6Ga4Si5Sn4S7O48,1.8788
Tb2MgSe4,1.8789
CoH24C2S2(N3O7)2,1.879
PbWO4,1.879
TeW2Se2S,1.8791
Na2Ta4Ti4Si7S5O48,1.8791
La2CN3Cl,1.8792
Te6MoW3S2,1.8792
Nb2Co4O9,1.8793
MgTe3WO12,1.8794
GaBiO3,1.8794000000000004
BaNaCeSbO6,1.8795
Mg(MoO2)2,1.8796
MgFe2P2O9,1.8796000000000004
MnMoH2SeO7,1.8798
Sr10Mg4Fe(MoO6)5,1.8798
Li2AlFeO4,1.8799
CrPb5O8,1.8799
K3Mn3H2C12O13,1.8800000000000003
MnMoH2SeO7,1.8801
V2OF5,1.8802
Li5MnO3F,1.8802
FeH12C4(S2O3)2,1.8802
CsMn4Cl9,1.8802
Ba(HO)2,1.8803
Dy2NbGaO7,1.8805
MgBi4(WO6)2,1.8805
B2(CN2)3,1.8805
SrMo(PO4)2,1.8806
KCo2As2HO8,1.8807
Hg2W2O7,1.8807
C2S3,1.8808
Na2UTeO7,1.8808
Hg2W2O7,1.8808
Li3RhF6,1.8808
MgBi2F12,1.8808
Sr3Ca(SnO3)4,1.8809
VRe2O9,1.8809
Hg2P2H4O9,1.8809
Ba2TiO4,1.881
Na6Ge2Se7,1.881
BaNaCeSbO6,1.8811000000000004
HoCuS2,1.8811000000000004
La20S29O,1.8812
Na3BrO,1.8815
RbAl3Cd(SiO4)3,1.8815
Li6MnCrP2(CO7)2,1.8815
Na3Nb8Zn4P15(SO24)3,1.8815
BaLa4TiCr4O15,1.8816
LiFeSiO4,1.8818
KFeH2S2O9,1.882
NaFe3H6(SO7)2,1.882
K5Au(IO)2,1.882
Na4B4Sb2SO16,1.882
Hg2TeBr3,1.8821
BaMnNb4O12,1.8824
La2MgSe4,1.8827000000000005
NaNbZnP2SO12,1.8827000000000005
Tm6MgWO12,1.8828000000000005
FeH4Cl5O,1.8829
Li4V2Si(PO6)2,1.8829
Be2CoH6(NF4)2,1.8831
Na2Nb5Al3(PO4)12,1.8831
Li3VS4,1.8832
CsAuS,1.8832
CaMnO2,1.8832000000000004
NaLiTe,1.8833
Ag2Mo2O7,1.8834
RbLi2Fe2(BO3)3,1.8834
MoP2O7,1.8834
Bi3O4F,1.8834000000000004
BaSrLaBiO6,1.8835
Li10Ti11Nb6O42,1.8835
V4Pb3O3F19,1.8835
Cs2RbAlI6,1.8835
LiMg30BO31,1.8835999999999995
TiH20C8(NF3)2,1.8836
Tb2MgS4,1.8836
Ca2CrWO6,1.8837
VSb3(PO4)4,1.8837
CS5N5O3F,1.8838
Nb2Cd2O7,1.8839
Na3VPCO7,1.8839
LiCoO2,1.8839
NaIO4,1.8841
Ba4ScReWO12,1.8841
Sr2DyBiO6,1.8842
KYMg14O16,1.8842
Na4SnO3,1.8842
Sr2V3O9,1.8843
Li2V(PO3)5,1.8843
AlCr(WO4)2,1.8845
Sr5Ti9O23,1.8845
K6NaAu2IO8,1.8846
AlTeI7,1.8846
BaSrLaBiO6,1.8846000000000005
CaMg30SnO32,1.8848000000000005
CrXeF6,1.885
Cs2KAsI6,1.885
KFe(SO4)2,1.8851
BaCaMnWO6,1.8852
NaSr2LaTi4O12,1.8852
RbMnO4,1.8853
K2LiAlP2,1.8853
LiFe(PO3)4,1.8853
Na2LiAlP2,1.8853000000000004
Sr3Ti5O13,1.8854
UO3,1.8855
Mg3Mn3(AsO4)4,1.8856
Mg30BWO32,1.885699999999999
Li7VO5F,1.8857
Sr2La2MgTi3O12,1.8857
Li2VFeP2(HO5)2,1.8858000000000008
Ba5Mn3O12F,1.8859
Ho6MgWO12,1.8859000000000004
Er2MgTl2(WO4)4,1.886
FeAsO6,1.886
FeO,1.8861
LiFe(PO3)4,1.8861
K2YAuBr6,1.8862
Na9Ca5Ta7Si9(SO8)9,1.8862
Te2Mo3W(SeS2)2,1.8862
Cd5Ge(PO6)2,1.8863
CoSb(PO4)2,1.8863000000000003
LiV(SO4)2,1.8864
Li3SbH18S4O9,1.8864
Os2(CO)7,1.8864
Rb2PbO2,1.8864000000000003
WSCl4,1.8865
Na6Mg2Zr2Si3(SO8)3,1.8866
NaHoSe2,1.8867
MgTiBi(PO4)3,1.8867000000000005
Mg30MnVO32,1.8867999999999991
Li3Fe(PO4)2,1.8868
Na10Sc4Si7Sn4S5O48,1.887
CaP2(WO5)2,1.8870000000000005
La4Au2O9,1.8870999999999996
CaLa2Co2Sb2(PbO6)2,1.8872
Na4Sn(GeS3)2,1.8873
Na2U(TeO5)2,1.8873
AlCr(WO4)2,1.8873000000000009
Na5UH3S4O19,1.8874
Mn3ZnO7,1.8874
Na3Nb6Bi5O24,1.8875
CoP2H17N4O9,1.8875
SO5,1.8876
MgV2(PO5)2,1.8877
Mg2TaMoO6,1.8878000000000004
CoH4S(NO2)2,1.8879
Na3GeSe3,1.8881
LiV(CO3)2,1.8881
Sb7Se8F35,1.8882
Li3TiFe3O8,1.8882
Te2Mo2SeS,1.8883
MgTi4(FeO4)3,1.8883000000000003
LiPrS2,1.8884
Rb2NaSbI6,1.8884000000000003
GdAlO3,1.8885
LiVP2O7,1.8886
RbGeBiS4,1.8887
Li4V2Si(PO6)2,1.8887
KSn2H36C12(Se2N)3,1.8887
KS3,1.8889
Ba5Nd8Mn4O21,1.8889
NaZr2SN2Cl,1.889
CaMg6CdO8,1.8891
In3SnI5,1.8891
CoH8Se2(ClO4)2,1.8892
Ho2MgS4,1.8892
Li4CoSn3(PO4)4,1.8892999999999995
Ba2Sb4P2O17,1.8893
In3SnI5,1.8894
Cs2NaSbI6,1.8895
Li5BiS4,1.8897
CsAuCl4,1.8897
Li2VP4(H4O5)4,1.8897
SbO2,1.8897000000000004
CrB2(PbO2)6,1.8898
LiTeO3,1.8899
RhSe2Cl7,1.8899
Ga2(CN2)3,1.89
MgZn2(FeO2)4,1.89
LiTiCrO4,1.89
BaSrNdWO6,1.8901
Mg14MnNiO16,1.8901000000000003
NbVO5,1.8903
P2S7,1.8903
Na3ScSi2GeSO12,1.8903
Li2FeAsCO7,1.8906
KSmSe2,1.8906000000000005
Ba4Re2NiO12,1.8907000000000005
LiLa3MnO7,1.8908
CaY5(MoO6)2,1.8908
Ba8CaY2U4O24,1.8908
Li2Cr2FeSbO8,1.891
Li3Fe(CO3)3,1.8912
LiAgF2,1.8912
Rb2InAgF6,1.8913
Li2Sn(PO3)6,1.8913
MgAg4Te8(MoO12)2,1.8913
Na3FeBPO7,1.8914
Mg2MnWO6,1.8914
Li16Fe4SiO16,1.8916
Li4Ti3O8,1.8916
Pr8Sb2S15,1.8916
Rb3Zr2P5S18,1.8916
TiZnBi(PO4)3,1.8917
Ba2GaS4,1.8917
LiFeCSO7,1.8918
H2Os4Pt(CO)15,1.8919
CaFe2(SiO3)4,1.8921
Ca2Mn2V3AgO12,1.8921
Na4Ge2Se5,1.8921
K2U3(IO5)4,1.8921
Li2V(SiO3)2,1.8922
Zn(GaS2)2,1.8922
Tl2CN2,1.8922000000000003
U(HO2)2,1.8923
Li2FePO5,1.8923
ZnWO3,1.8923
Bi(Mo2Cl5)3,1.8924
V2SO8,1.8925
Li3Cr2(PO4)3,1.8925000000000003
Ba4Sm2Cd3S10,1.8926
TiMnH12(OF)6,1.8926
NaCaGe3P3(SO8)3,1.8926
BaLa3TiCr3O12,1.8927
Ni(HO)2,1.8928
H8C2I3N,1.8929
Bi25BO39,1.8929000000000005
Y2MgSe4,1.8931
UCrO4,1.8932
NaBi3(IO2)2,1.8933
Ba2LiVP2O9,1.8934
Sr4MgCr2(SO3)2,1.8934000000000009
Cs2NaInBr6,1.8935
Mg6NbCO8,1.8935000000000004
SbAsPCl13,1.8936
CaTiFe5O8,1.8936
P2WO8,1.8937
S(IO3)2,1.8938
Sr4BrN2Cl,1.8938
Pb13(Cl3O5)2,1.8938
Li3Fe2P2(CO7)2,1.8939
H17RuN6ClO3,1.8939
LuBeNF6,1.894
Y2CrSbO7,1.894
Li3AsH36(SeN3)4,1.8941
YSeCl,1.8941000000000003
Ba5Ce4ZrO15,1.8942
LiFePCO7,1.8942
VF4,1.8942
Dy2CrSbO7,1.8942999999999997
Na9Nb2Zn4(PO4)9,1.8944
KMg30MnO32,1.8944
NaCdFe(PO4)2,1.8944
MgCr2Fe3Ni(PO4)6,1.8945
Li6NiOF6,1.8946
NaCa2Ta3O10,1.8947
ZnAgPO4,1.8947000000000005
VH7(CO2)4,1.8948
Fe2C2O7,1.8948
CsMn2V2ClO7,1.8949
Ag2H6PdS2(NO3)2,1.8949
Mg30VSiO32,1.8949000000000007
Na5GdO4,1.895
Ga2SiGe2S5O24,1.8951
Rb2ScCuCl6,1.8951
Ba4ScTi4BiO15,1.8951
Fe2Sb(PO4)3,1.8952
MgH12C4(S2O3)2,1.8952
Li5NiOF5,1.8952
Rb2Hg2PdCl8,1.8952
Ba3Sm2WO9,1.8953
Li3CrPCO7,1.8953
Mn2Fe5(SiO3)8,1.8955
AuCS2Cl3,1.8955
Li3Fe(PO4)2,1.8956
Li3FeSiO5,1.8957
Li2VBO4,1.8957
USCl9,1.8957
RbNdSe2,1.8958
BaNaNdSeO6,1.8961
Na2Al4Ga4SiS11O48,1.8961
Li3Fe2(SiO4)2,1.8961
Rb2S,1.8962
Na5NiO4,1.8963
TaBi3O7,1.8963
LaNb3(PO4)6,1.8965
Zn3(AsO4)2,1.8965
NaMnPO4,1.8966000000000005
Hg3C2(N2Cl)2,1.8967
NaV3O8,1.8967
U2Si(H2O5)2,1.8968
InGeP(SO6)2,1.8968
Fe10OF19,1.8969
Fe2C2O7,1.8969
Na3Fe3(PO4)4,1.897
LiV(CO3)2,1.897
IrCl3,1.897
Rb2WS4,1.8971
LiFeOF2,1.8972
Al3Te3Br,1.8972
Na15Ca7Nb5(PO4)18,1.8972
Li2VFe(P2O7)2,1.8972
LiFeCO4,1.8973
Ca3V2(SiO4)3,1.8973000000000004
YbTiO3,1.8974999999999995
SrCaPbO4,1.8976
KCeNbSnO6,1.8976999999999995
SrMg14MnO16,1.8978
K2PrNb5O15,1.8979
Li3Fe2(PO4)3,1.8979
NdMnO3,1.898
Sr4BrN2Cl,1.8982
Ba3Lu2MoO9,1.8983
LiVF5,1.8983
SeS7,1.8983
V6O5F19,1.8984
LiTiFeO4,1.8984000000000003
RbCa(H2N)3,1.8986
Ce3Nd2O9,1.8987
Li3FeSiO5,1.8987000000000005
Sr2AlSbO6,1.8987000000000007
Pr4(GeS4)3,1.8988
Na3Ca3TiPS5O24,1.8988
Y5Mg(MoO6)2,1.8988
V3OF11,1.8989
Li2Ti7Nb6O30,1.8989
Li4NiOF4,1.8989000000000005
HfTaNO3,1.8989000000000005
CrH6C3(S2N)3,1.8989000000000005
CsMnVF6,1.8989000000000005
CoSb(PO4)2,1.899
RbSmSe2,1.899
ZnGe2WO6,1.8992
AlAgS2,1.8992
V4ZnO9,1.8992
LiVPO4,1.8992999999999995
Na6Zr2Zn2Si3(SO8)3,1.8993
Li4CrFe3Sn2(PO4)6,1.8994
KZnBr3O2,1.8995
Sm2Ti3(BiO6)2,1.8995
Rb2UO4,1.8996
Li7P3S11,2.4142
FeP3(HO2)6,2.4143
RbVPHO6,2.4143
As4S3,2.4144
Cs2Mo2O11,2.4144
Ba5As2(SO6)2,2.4145
Cs2ScTlI6,2.4146
FePO4,2.4147
Na14Ga4Si9Ge4(SO16)3,2.4147
HfPbO3,2.4148999999999994
KNb3(TeO6)2,2.4149000000000003
Nd6Si4S17,2.4149000000000003
KLaYSbO6,2.4149000000000003
Li3MnFeCo(PO4)3,2.4151
Ba3TiNb4O15,2.4151
KNb4AsO13,2.4151
P4H3(WO8)2,2.4152
NaCaTiMnSi2O8F,2.4152
NaMgSn3P3(SO8)3,2.4153
Ba5SrLa2Fe4O15,2.4153
Li9Fe3P8O29,2.4154
Ba2SrTm6O12,2.4154
YAgO2,2.4154
Ba2MgMo4(P2O7)4,2.4155999999999995
TeAsHXeNF11,2.4156
YV5(H12O13)2,2.4156
TiCdO3,2.4156
Ti(WO4)2,2.4156
C4Cl5,2.4157
Mo6H10N2Cl14O,2.4158
Na2Mn(SiO3)2,2.416
KRb2TlCl6,2.416
Ba5Nb2O11,2.4161
LiMgCr3(SO4)6,2.4161
NaAsW2O9,2.4161
LiCoPO4,2.4161
KLiMg30O31,2.4162
K4Gd2C3O9F4,2.4162
Na3CaNb5Si3(PO6)6,2.4164
K3GeS3,2.4164
Li2VPO4F,2.4164000000000003
KH3C2S2O,2.4166
Ba5SrNd2Fe4O15,2.4166
KGd(BH4)4,2.4168
Fe(AsO2)2,2.4168000000000003
Li2CoSiO4,2.4169
RbCr2BiO8,2.4169
NaNdFeWO6,2.4171
LiCr(WO4)2,2.4172
Tl2FeC5N6O,2.4172
ZnSbAsO5,2.4172
TcO2F3,2.4173
Mg(GaO2)2,2.4173000000000004
Li2Mn3OF6,2.4174
LiVP2HO7,2.4174
NaSr2IO6,2.4174
Cs2HCl,2.4176
B2F3,2.4177
Fe2P2H4NO8,2.4178
ScCrO3,2.4178
Ca3(BN2)2,2.4178
Ca2AlCrO5,2.4178000000000006
K3VCO8,2.4179
Sm9Al5S21,2.4179
H12OsC4NO4F,2.418
Na2FePCO7,2.418
NaSmTiO4,2.418
Rb3GaO3,2.4181
Li2CoSiO4,2.4181000000000004
BaCoP2O7,2.4182
Cr(ClO)2,2.4182
Li2V(CO3)2,2.4183
TlMo2Cl7O2,2.4184
Na4CrH8SO7,2.4186
Al3Si3Ag4IO12,2.4186000000000005
S,2.4187
KBaBiWO6,2.4187
FePO4,2.4187000000000003
MgV3O7,2.4187000000000003
TlVSeO5,2.4187000000000003
Cs3SbI6,2.4187000000000003
CaNb5(PO4)9,2.4188
Cs2FeH2Cl5O,2.4188
KGdSnWO6,2.4188
RbAg(NO3)2,2.4188
PaCl5,2.4189
Li7Fe5OF15,2.4189
Rb2Mo2P2O11,2.4189
KAlSe2,2.4189
Mg14ZnFeO16,2.4189
Te3H9Br13O4,2.419
K3PS4O,2.4191
Li8ScFe7(SiO3)16,2.4191
LiFeSi3O8,2.4191000000000003
Cs2TeS3,2.4192
Fe2C9O7F4,2.4193
Li3Mn(OF)2,2.4193
Li7VGeO8,2.4194
H13RuN5(ClO)2,2.4194
NaMg30SbO32,2.4194000000000004
ZrSO,2.4195
Ba2Co2ClF7,2.4195
LiFeSiO4,2.4196
K2ErCuCl6,2.4197
HC2N3,2.4199
LiFeSnO4,2.4201
HoPaO4,2.4203
BaCaCeZrO6,2.4204000000000003
K2CrOF5,2.4206
K2ZnH12(SO7)2,2.4206
MgCr(SiO3)2,2.4206000000000003
Li6FeSn3(PO4)6,2.4207
Ba7Sc6Al2O19,2.4207
LiCr(PO3)4,2.4207
Ca3Fe2(GeO4)3,2.4209000000000005
BaTi(AsO4)2,2.4211
Li3Co5OF11,2.4212
Nd4Si2Se3O7,2.4212
Li2TiCr(PO4)3,2.4212
LaTi6(PO4)9,2.4213
LiCr4(PO4)3,2.4213
NaNd3PtO7,2.4214
NaLaTiO4,2.4214999999999995
Ca4Nb2O9,2.4215
Rb2NiF6,2.4216
MgMn2V2O8,2.4216
BaMgVF7,2.4216
Na3Ca2Ta3Ti2O15,2.4216
Li3FeSiO5,2.4217
AgAsC4S8(N2F3)2,2.4217
KVPHO6,2.422
NbIn(TeO4)2,2.4220999999999995
KPrDyNbO6,2.4221
Ba5Er8Ni4O21,2.4221000000000004
Sr10Mg5Mo2(WO10)3,2.4223
NaFe(SiO3)2,2.4223
LaPrCr2O6,2.4225000000000003
VH12C2S2(O2F)6,2.4226
Li3CoPCO7,2.4226
V2ZnO6,2.4226
MnC5BrO5,2.4226
InAgP2(HO4)2,2.4228
Mn4Be3Ge3SO12,2.4229
Li3CoPCO7,2.4231
SrCaS2,2.4232
TiNb(BiO3)3,2.4233
ZnCr2O7,2.4233
H3NO,2.4233
Zr2TeBr12,2.4236
Mg30NiCO32,2.4239999999999995
K2H4Pd,2.424
Na4CO4,2.424
Hg(ClO3)2,2.424
TiNb2ZnO8,2.4241
Li3AlFeO4,2.4242
MgV(CO3)2,2.4242
LiVF4,2.4243
Cs4SnO4,2.4243
La4TiO8,2.424300000000001
ZnSi4SnO10,2.424300000000001
Sm2Zr8O19,2.4244
KPrYNbO6,2.4244000000000003
KBi(WO4)2,2.4244000000000003
Na5Ti2Si2PO13,2.4245
BaV2H2(Se2O7)2,2.4246
BiSbO4,2.4246
KZnP(CO3)2,2.4246
LiFeSiO4,2.4246
KSnPCO7,2.4247
Li3V(BO2)5,2.4248
ThPbI6,2.4248000000000003
Cr3B7BrO13,2.4249
Li4CrNi5(PO4)6,2.425
TiPHO5,2.4250000000000003
Cs2Ga3As5O18,2.4251
Li3H6Rh,2.4252
La2Mg(FeO3)2,2.4252
Sr2HfTiO6,2.4253
Ca2BrN,2.4254
B2(CN2)3,2.4254
Rb2GaAgF6,2.4254
LiMn4(PO4)3,2.4254
K2TaAgS4,2.4256
Na22CaFe6P12(O8F)6,2.4256
Ga4SiO8,2.4256999999999995
Zn(HO)2,2.4257
FePO4,2.4257
K2NdCuCl6,2.4258000000000006
Sr2ZnS3,2.4258999999999995
LiVF3,2.426
MgVP2O7,2.4261
NaScNb(PO4)3,2.4261
Tm2S3,2.4261000000000004
Rb9Fe7(PO4)10,2.4262
LiMnF3,2.4262
MnOF,2.4262
Rb3Hg2S3ClO12,2.4262
La3TaSiS5O24,2.4263
Li2MnO2,2.4263000000000003
Na6Ge2S7,2.4264
ZnSn2(PO4)2,2.4265000000000003
K2NaNb(OF2)2,2.4266
Na2FePCO7,2.4267
KFe2P2H5O11,2.4267
Fe(HO)2,2.4268
La4MgGa2(FeO6)2,2.4268
KNa2AlH6,2.427
Tl3CO3F,2.4270000000000005
S,2.4271
Ca4Nb2O9,2.4271000000000003
K4GeH4N2O3,2.4271000000000003
Li9S3N,2.4272
CsTiNb(O2F)2,2.4272
LaPS4,2.4274
BaNaBiWO6,2.4275
Bi2TeO5,2.4275
NbP2NCl12,2.4276
Na3VS2(O4F)2,2.4277
Sr(ClO2)2,2.4277
Cr2P4Pb3O16,2.4278000000000004
Fe2(MoO4)3,2.4279
As4H24C8S7N2,2.4279
Na3FeSiCO7,2.428
Li4FeO3F,2.4281
MgSiO3,2.4281999999999995
RbSbMoO6,2.4282000000000004
Na9Fe2P4HO18,2.4284
NaCrP2O7,2.4285
Gd7Y5Nb4O28,2.4285
NaInH6(SeO4)2,2.4287
Na2TiGa(PO4)3,2.4287
VBO4,2.4287
LiFeSiO4,2.4288
Li3AlNiO4,2.4289000000000005
Pb3(ClO)2,2.4293
Ta3In(PO4)6,2.4293000000000005
AgClO4,2.4294
Mg4Al3(HO)17,2.4294
La2S2O,2.4295
RbGeIO6,2.4295
ErMoClO4,2.4295
SnC2(SN)2,2.4296
FeH24C8(NCl2)2,2.4297
Na5LiFe6(SiO3)12,2.4298
LiFeSiO4,2.4298
TiP2O7,2.4299
K2Zn3S4,2.4299
Tb2TiO5,2.4300000000000006
YSeF,2.4302
La2Mg(NiO3)2,2.4303
Bi5IO7,2.4304
NaLiFe2(SiO3)4,2.430400000000001
K3TiFeH4S4O19,2.4305
UAsH9O10,2.4305000000000003
Na3ReO5,2.4306
Na2Ta6In2Si7S5O48,2.4307
FePO4,2.4307
KLuS2,2.4307
NaNbN2,2.431
SnHgF6,2.431
Fe(PO3)3,2.4311
NbSbO4,2.4311000000000003
Ba3Sr4O7,2.4311000000000003
Ba5SrLa2Fe4O15,2.4312
NaLiMg30O31,2.4312
SeO3,2.4312
Ba4Ta10CoO30,2.4312000000000005
KFe2P3(O4F3)2,2.4313
FeH10S2NO11,2.4313
Zn3(PS4)2,2.4314
Cd4B6O13,2.4314
LaHO,2.4315
SrV2(NiO4)2,2.4315
Li12CrFe3P4(CO7)4,2.4315999999999995
S4N5F,2.4317
LiVF4,2.4317
U2NiP2(HO)24,2.4318
V2Bi4O11,2.4318
GeBiH8C2S4N,2.4319
KNaTi4(BiO6)2,2.432
NaNbFe(PO4)3,2.432
Ba2CrF6,2.4321
NaLuS2,2.4323
LiFe2OF3,2.4324
Na3LiMnBPO7,2.4324000000000003
ThV2PbO8,2.4325
K3SmGa3B12S12I,2.4325
H8PtN2(ClO)2,2.4328000000000003
LiCrP2O7,2.433
Fe3PWC15BrO15,2.4331
KFePO4F,2.4331
TiAg2(IO3)6,2.4333
Li3V(BO3)2,2.4333
Zn2Cd(BO3)2,2.4333
K2Mo2P2O11,2.4334
MgZn2(WO4)2,2.4335000000000004
Li3VF6,2.4336
Li3VPCO7,2.4336
Ba3InSe4Cl,2.4336
AgSO3F,2.4337
Ba2La2O5,2.4337000000000004
Na4Zr2TiMnSi4(O8F)2,2.4338
MnSe2O5,2.4338
Li2Cr(SiO3)2,2.4339
FeCoPO4F,2.4339
TmPaO4,2.434
ErPaO4,2.4341
V2NiO6,2.4342
KNaV4H4O11,2.4342
Ba2MnGe2O7,2.4342999999999995
SnPCl9,2.4344
Li2FeBO4,2.4344
Rb2NdCuCl6,2.4344
LiMnFeF6,2.4344
AgBi(IO3)4,2.4344
Na6V2C4SO16,2.4345
SrGa4O7,2.4346
SrTiFeBiO6,2.4347000000000003
Bi3Te4(ClO2)5,2.4347000000000003
Sr2MgZrCrO6,2.4348
Ba6HfO8,2.4348
C11N4,2.434899999999999
Mg(GaO2)2,2.4348999999999994
Mo6H20Cl14O9,2.4349
LiFe(CO3)2,2.4349
Ho2MgW2(ClO4)2,2.435
NiAs2S6(NF3)6,2.435
FePO4,2.4351
U2NiAs2(HO)24,2.4352
Sr(CO2)2,2.4352
PrPtF7,2.4352
LiMg14BiO16,2.4353
Rb2TmCuCl6,2.4353
B3Pb10Br3O13,2.4354
Sr2H6Os,2.4354
LiVF4,2.4354
BiOF,2.4354000000000005
CdPb2(ClO)2,2.4355
Li2CrPO4F,2.4355
Ba2H8PtO8,2.4355
Na2Si2Se5,2.4355
Sn2IF3,2.4355999999999995
Na4Zn2Ga2SiS5O24,2.4356000000000004
Na14Al4Si9Sn4(SO16)3,2.4357
K2Mo3(AsO5)4,2.4357
Cs2NiF6,2.4357
Li3CrP2HO8,2.4359
TlInSiS4,2.4359
Hf2N2O,2.436
KNb4AsO13,2.436
HC2N3,2.4361
ZnCoP2O7,2.4361
KLiZnS2,2.4361
Cs3CaFe(P2O7)2,2.4361
Sr2ZnMoO6,2.4361
Na3MgNb5Si3(PO6)6,2.4362
TlSbO3,2.4362000000000004
Li2Fe3P9O28,2.4363
TlSbO3,2.4363
NaMnFeF6,2.4364
MgU2P2(H10O11)2,2.4364
NaNbO3,2.4364
Cs2TmCuCl6,2.4365
Li5FeO3F2,2.4365
NaLi3Fe4(SiO3)8,2.4365
CsCd(NO2)3,2.4366
Li4VP6(H4O11)2,2.4366
Rb2LuCuCl6,2.4367
LiFeSiO4,2.4367
Li2Cr2O7,2.4367
Nd2SiS5,2.4368
Li2CrPHO5,2.4368
LiFe2C2O7,2.4368
LiHfMg14O15,2.4368
LiCoPO4,2.4368
Na2Ta3AlSi4(SO12)2,2.4369
Li2Cr2(PO4)3,2.4369
Nb2Zn(PbO3)3,2.4369
TiAgPO5,2.4369
Na10In8Si5S7O48,2.4369
LiAg2P3(HO5)2,2.4369
LiFeSiO4,2.437
BS2,2.4370000000000003
BaH2Se(S2O3)2,2.4370000000000003
H5PbCN2Cl3,2.4370000000000003
Co2PH2CO7,2.4370000000000003
Mg11AlFeSi11O36,2.437099999999999
Y9Al5S21,2.4371
Sm2Cu(SeO3)4,2.4371
Rb4Sb2O5,2.4371
Li6FeO4F,2.4372
LiFe(SiO3)2,2.4372
Cs4SiO4,2.4373
Na2W4O13,2.4373
Sr2CeHfO6,2.4374
LiCoBO3,2.4375
AgIO3,2.4375
NaLiSe,2.4375
Na4Nb3InSi4(PO12)2,2.4376
LiCoPO4,2.4376
Na3FeP8O23,2.4377000000000004
Na3Cr(BO3)2,2.4378999999999995
Li2Cr2(SO4)3,2.4379
MgWO3,2.4380000000000006
Si3(TeO6)2,2.4380000000000006
K4MoC5N6O,2.4381
Na3ScTiSi2SO12,2.4381000000000004
Ti3(BiO3)4,2.4382
CsMo3I3Cl4,2.4383
Li2Co(CO3)2,2.4383
ReC5ClO5,2.4383
Na4ReN3,2.4384
Li2HN,2.4385000000000003
Li2FeBO4,2.4386
KMo(PO4)2,2.4386
Mg2TaWO6,2.4388000000000005
LiTi2(PO4)3,2.4389
Sr2YMgCrO6,2.4389000000000003
CoBP(HO3)2,2.439
Tl3SnI5,2.439
AsS4N5F6,2.4391
Lu2TiO5,2.4391
Mg2CoWO6,2.4392
LiCa3Si2N5,2.4392000000000005
LiFe3(P3O10)2,2.4394
K2Ca(NO2)4,2.4394
Dy9Al5S21,2.4394000000000005
Sm2(N4O9)3,2.4395
ThV2PbO8,2.4395
SmSI,2.4395
LiFe(SiO3)2,2.4396
LiFeSiO4,2.4396
NbAsPCl13,2.4397
MgSi4SnO10,2.4399
NaMg14FeO16,2.4399999999999995
Mg3Fe2(SiO4)3,2.4400999999999997
HgCSNCl,2.4401
KTl2MoF6,2.4401
Ti3(BiO3)4,2.4401
Na2Sc4SiS5O24,2.4401
Na2Zr4Zn4SiS11O48,2.4402
KBiF6,2.4402
CaPr2Ti2ZnO9,2.4402
Sr3Ta7Si(BiO4)9,2.4402000000000004
K2NdAgF6,2.4403
SnPO4,2.4403000000000006
Ba3ZrTa4O15,2.4404
NdTlP2S7,2.4404000000000003
CaTa2O6,2.4405
Sr(H2O3)2,2.4406
Te2MoWSe2,2.4407
NaCa9TaTi9O30,2.4407
YNbP2SO12,2.4408
CsSn2Br5,2.4409
Li7Cr3Co(PO4)6,2.4409
Rb7VSiO8,2.4409
MgTiFeO4,2.4409000000000005
LaTaSi(SO6)2,2.441
Ca2LaGeS4Cl3,2.4410000000000003
Cs2KSbI6,2.4410000000000003
Ba5(IO6)2,2.4411
AlSNCl3,2.4413
Ir3(CO)8,2.4415
K2Mo2H8O15,2.4415
Li4MnOF4,2.4416
Mn2In(CO)9,2.4416
CrCdO4,2.4417
Na2Ti4O9,2.4417000000000004
H4INO4,2.4418
H8C2N6O7,2.4418
Li2FePCO7,2.4418
TmBiO3,2.4418
CsLi7(NiO3)2,2.4418
Rb2CaNb2(TeO6)2,2.4418
Na2Ti2Si2H2O9,2.4419000000000004
Hg2H6CN3Cl5,2.442
Li3Cr3(PO4)4,2.442
ZrTiSi(SO6)2,2.4421
Ba2SnO4,2.4422
H4PbI3N,2.4422
MnCu(Te2O5)2,2.4423000000000004
Ca4Ti3O10,2.4425
RbMg14CoO16,2.4425
Li5BiO4,2.4426
LiCrP2O7,2.4426
Cs3ScI6,2.4426
Li2B2S5,2.4427000000000003
Cs2AgAsF6,2.4428
Ca2Nb2FeO8,2.4428
NaTi2(PO4)3,2.4429
Cs3Cu2I5,2.4429
Cs2W3SeO12,2.443
Sn3(HO2)2,2.4431000000000003
Sm4Th3O12,2.4431000000000003
Ba3(ClO)2,2.4432
Co(IO3)2,2.4432000000000005
Ba10MgMn3V8(Cl3O7)4,2.4433
NaTi2Nb2SiP5O24,2.4433
Na3Nb5ZnSi3(PO6)6,2.4434
LiFe(SiO3)2,2.4434000000000005
C3NClO,2.4435
MoSeCl7O,2.4435
BaDyNbSnO6,2.4437
Na2YTa3Si4(SO12)2,2.4438
BaYNbSnO6,2.4439
Na2FeNiF7,2.4439
LiVF4,2.444
NaMg30BO31,2.444000000000001
NbH12N3O8,2.4441
PrBS3,2.4441
K3GaSe3,2.4441
Li4SeO5,2.4442
RbTaN2,2.4442000000000004
Cs3ScO3,2.4443
Rb3MgNbO8,2.4443
LiCoPO4,2.4443
YGa(SO4)3,2.4444
TcO3F,2.4445
AlCrF5,2.4445
Li3Ti3Fe(PO4)6,2.4446000000000003
CrSO4,2.4446000000000003
Rb2AlAgCl6,2.4448
TmCrO3,2.4448
K5GaSe4,2.4449
MgMoF6,2.4449
Co(HO)2,2.4449
Na4Sn4H10O11,2.4450000000000003
NaV5H18N2O19,2.4451
Na5Ta2Ti2Si5PO24,2.4451
H3Os4C12IO12,2.4452
B2Mo(PbO2)6,2.4454
Tb2MgW2(ClO4)2,2.4455000000000005
SrFeBP2(HO5)2,2.4456
Na8Ca2Y2Si3(SO8)3,2.4456
Li3BiS3,2.4456999999999995
Ca2Ti3O8,2.4456999999999995
Y4Ti2Nb2O15,2.4457
BaNb2Fe2(PO4)6,2.4458
Mg6FeSiO8,2.4459
B8O,2.4459
H10C5SeS2N3Cl,2.446
Li3Fe2P4HO14,2.4461
Na4Sc3Nb(PO4)6,2.4461000000000004
NaVCdO4,2.4462
LiNiPO4,2.4464