formula,band_gap (MP)
La4Bi2S9,1.0372000000000003
In10CuAgS16,1.0372000000000003
Li24Mn5Cr7O36,1.0373
Re(TeCl6)2,1.0373
CoSnN6Cl5,1.0374
BiAuBr6,1.0374
Mg(SbO3)2,1.0374999999999996
YbC2,1.0375
Nb3P6WO24,1.0375
Ta2CrNO5,1.0376000000000003
Ca4YFe5O13,1.0376000000000003
Mg30SiCO32,1.0376999999999992
Li3Ti2(FeO4)2,1.0376999999999996
V2PS10,1.0376999999999996
CrAgS2,1.0377
Mg2Mn3O8,1.0377
Sm2AlNO3,1.0377
Cd2Hg2H(SO5)2,1.0378
Te6MoBr3,1.0378999999999996
V4O7,1.0379999999999998
TbBiTe3,1.0380000000000005
LiCr2P3O11,1.0380000000000005
LuCuPbSe3,1.0381
Co6OF11,1.0381
CaCoAsO5,1.0381
CuTeSeI,1.0381000000000005
SiPAu,1.0382000000000002
Ca2FeWO6,1.0382999999999996
Li4Mn3OF11,1.0383
Ba2V5(PO6)4,1.0383
Na5SnP3,1.0383
Cu2H10N4O17,1.0384
Li4V3P8O29,1.0384
V2Hg2O7,1.0385000000000002
MgCu2GeS4,1.0385999999999995
La4Mn(Cu3S5)2,1.0386999999999995
MgMn2(SiO3)4,1.0387
AlCoP2NO8,1.0388
LiZn(ClO)3,1.0388
Ti5(TeO6)3,1.0388999999999995
Ba2VFeO6,1.0389
SnPbO3,1.0389
Rb12Sn8GeO4,1.0389
Li24Mn5Cr7O36,1.0389
MgFe4(OF)4,1.0389999999999997
Na3V5O10,1.039
Fe7(OF7)2,1.039
InRhO3,1.0391000000000004
SrCu(C2O5)2,1.0392
PbCBr3N,1.0392
MgV4O5F7,1.0392
Rb2MoSe4,1.0392
Li8TiS6,1.0393
KVO2,1.0393
Hg,1.0394
Li2Fe3WO8,1.0395
Na2Nb2In6Si3(S3O16)3,1.0395
Ba2V2CuClO7,1.0395000000000003
Mn2Bi3O7,1.0395000000000003
LiCa2CuN2,1.0396999999999998
VINCl3,1.0398
NbCrO4,1.0398
CdCoAsHO5,1.0398
VCl5,1.0398
BaLaEuSbO6,1.0398000000000005
AlPb3OF9,1.0399
RbAgO2,1.0399
V3Cr3(WO8)2,1.0399000000000005
Mg2ScCr3S8,1.0399000000000005
LiV6O7F5,1.0399000000000005
Li4V3P8O29,1.04
LiVPO5,1.0401
Fe6CuP4(H4O7)4,1.0402
Na2MgSi2Ge3(SO6)4,1.0402999999999998
HoC8N4Cl7,1.0403
Li5Mn2Co(NiO5)2,1.0403000000000002
Li9Mn2Co5O16,1.0404
Ca5MgN4,1.0404999999999998
CdP14Pb,1.0405000000000002
LiNbCrO4,1.0406
Cr3AgO8,1.0406
Y7C2I12N,1.0406
K7TaAs4,1.0407000000000002
NaV5O8,1.0407000000000002
Mg30CrCuO32,1.0408
TaNb(Cu3Te4)2,1.0409999999999997
LiGa3Te5,1.041
Na6CrN4,1.041
Ba2Ta15O32,1.0410000000000004
LiMn2O2F3,1.0411
Ba4P2O,1.0411
NbIO2,1.0412
MgCd2(FeO2)4,1.0413
Li32Mn3Cr13O48,1.0414
K2LiS2(O2F)2,1.0414
Mg(WO2)2,1.0414000000000003
TiSiO4,1.0414999999999992
Mg(BiO2)2,1.0416
TlFeO2,1.0416000000000003
MgV2O4,1.0416999999999996
Li5CoOF5,1.0417999999999998
NiTeP2O9,1.0418
Mg3Ge3(WO6)2,1.0419
Mg3Si9B36C,1.0420000000000007
Te2W,1.0420999999999998
Co3C9SeO9,1.0421
Ba2Sr6Ti7MnO24,1.0421
LiTiFeO4,1.0421
LiFeSbO4,1.0421
MgMnV5O12,1.0422000000000002
La4MgCr2O12,1.0422000000000002
LiLaV4O12,1.0423999999999998
MgScMo3O8,1.0423999999999998
Na4MgV10(H11O13)4,1.0425
Li2MnVP2(HO5)2,1.0425
Ca(Fe2O3)4,1.0425
Ti11Fe17O42,1.0425000000000004
HfMg14CuO16,1.0427
InSbO4,1.0427999999999995
Li4Ti3Fe2Sn3O16,1.0427999999999995
ReH12C3S3(NCl)6,1.0428
Li8CrO6,1.0428000000000002
Li9Mn7O16,1.0428000000000002
Ba6MgSc2C2(O3F7)2,1.0429
Fe3(OF)2,1.0429
FeHO2,1.043
NaNdMnWO6,1.043
Na2Ca3Ge(SO4)6,1.0431
La4MgNi3WO12,1.0431999999999997
V3OF7,1.0432
MgW4O9,1.0433
MgV4O7F5,1.0433
LiAgHg2,1.0433999999999997
Cd2GaAgS4,1.0437
MgCo2Te2(MoO6)2,1.0437000000000003
Pr2ZrS5,1.0437000000000003
Pr(YS2)3,1.0437999999999996
MgV4O5F7,1.0438
MgV4(OF2)4,1.0438999999999998
Li2MnCoO4,1.044
MgMnO2,1.0440000000000005
CdC2S2(IN2)2,1.0441000000000005
Ce2(N2O9)3,1.0443000000000002
NaTlSe2,1.0443000000000002
CeSe2,1.0444
Zn7SnN6,1.0444
Na4Mg(CoO3)2,1.0445000000000002
Cs3Na2SnP3,1.0445000000000002
Li6V3P8O29,1.0446
MgAg6Mo10O33,1.0446999999999995
Sn2SbSe2I3,1.0446999999999995
CoH7C3NO6,1.0447000000000002
K2Li2CoO4,1.0448
Ca2Mn2(SiO4)3,1.0448
Sm2CdSe4,1.0448000000000004
Hf2N2O,1.0450999999999997
Sr2VMoO6,1.0451999999999997
TiSnO3,1.0452000000000004
CsRbZr6BCl15,1.0453
HfMg6CuO8,1.0454
MgMn2Te2(MoO6)2,1.0454
LiMnH4(SO5)2,1.0455
Ba4MgMn4(P2O7)4,1.0457
EuBr2,1.0457999999999998
Cs3AsSe4O,1.0458
MgFe8(OF)8,1.0458000000000005
MgNbV3O10,1.046
Ti2O7,1.046
Li32Ti3Cr13O48,1.0460000000000005
Li2V3SnO8,1.0460999999999996
LiV2CrO6,1.0461999999999998
AlS2(NCl2)2,1.0461999999999998
SrCu2GeS4,1.0462999999999996
Li7Mn5O12,1.0463
Na6Ca3TiSi2(SO6)4,1.0464
Li4V3Ni3(WO8)2,1.0464999999999995
MgCo6Ag2P6(HO6)4,1.0465
LiMn2F7,1.0465
BaCu6(GeS4)2,1.0465999999999998
VCl2O,1.0466
Te6MoW3Se2,1.0467999999999995
Ta2CrO6,1.0468000000000002
AlAgTe2,1.0469000000000004
Na6Nb2In6Si5S7O48,1.0469999999999997
PtC8(SF3)4,1.047
GeCN2,1.0470000000000002
BaS3,1.0473
HgS4,1.0475
Cs2P2Pd,1.0475
K3Mn2F7,1.0475
Ba2NbFeO6,1.0475000000000003
Li3V3(BO5)2,1.0475000000000003
Li4Mn2V3Sn3O16,1.0476
Na3Ca2Fe5(SiO3)10,1.0476
NaLiMg6O7,1.0476999999999994
Mg2PtO4,1.0477
Er3ScS6,1.0477999999999996
MnCd(GaSe2)4,1.0478999999999998
Y3Pb3N5,1.048
Si7PtN10,1.0480999999999998
Na6Mg4Si3Ge4(S3O16)3,1.0482
Gd2V2O7,1.0482000000000005
CaBiCO4F,1.0483000000000002
Mg3(Fe11O18)2,1.0484
Li7Mn5O12,1.0485000000000002
Mn2In2O7,1.0485999999999995
CdPSe3,1.0486
MgV5O10,1.0486
Li5V3P8O29,1.0487
Y2TeO2,1.0487000000000002
Sr2UInO6,1.0488
Sc2TlCu3S5,1.0488999999999995
MgV2Fe2(H2O5)2,1.0489000000000002
Tb2Cu(BO2)8,1.0489000000000002
KTm2Cu3Se5,1.0489999999999997
Li3MnCoO5,1.049
Ba3Cr2O8,1.0490999999999997
FeSb3(PO4)4,1.0490999999999997
Fe2P2H6C2O13,1.0491
Li10Ge(PSe6)2,1.0491
Mo2(PO4)3,1.0492
MgV4O10,1.0492
Mg14MnCdO16,1.0492999999999997
In2Ge2O7,1.0494000000000003
HfBeO3,1.0495
CsPt2Se3,1.0495
ErCuSe2,1.0496
RbSm2Ag3Se5,1.0496
Mn5CoO12,1.0496
ScRhO3,1.0496999999999996
Te2Mo,1.0497
Tl6V7P5O31,1.0497
Li2VO2F,1.0497999999999998
Ba4TiAs4,1.0497999999999998
CsSnSe3,1.0499000000000005
Cs4TeSe15,1.0499999999999998
Mn7F16,1.05
YbV4O8,1.0500000000000005
MgTl4(MoO4)2,1.0501
Co2Bi11O20,1.0501000000000005
Na3TlBr6,1.0502
Ca4Fe5(TeO6)3,1.0503999999999998
Mg(MoO2)4,1.0503999999999998
K2Li3CrO4,1.0503999999999998
Cd(InS2)2,1.0503999999999998
Li3Co(BO3)2,1.0504
RbTb2Ag3Te5,1.0504000000000002
K2NaInP2,1.0504000000000002
TiAg2O3,1.0504999999999998
YW2O9,1.0505
MgMoWO6,1.0505000000000004
CsDyN4O15,1.0506000000000002
Na6CoO4,1.0506999999999995
Na4Al3Si3NO14,1.0507
Mg6CoBO8,1.0507999999999988
Mg(WO2)2,1.0507999999999995
YbV4O8,1.0509
Ca(SnO2)2,1.0511999999999997
Li5Mn2CoO8,1.0512
Al2Zn3N4,1.0513999999999997
Na2FeO4,1.0514
PtCl2,1.0515
Na2Zr12B2I5Cl23,1.0515000000000003
Pr2HfS5,1.0515999999999996
Li2TiV5O12,1.0517
Ba8Bi4O17,1.0517999999999996
K2P3,1.0518
Li4Mn3CoO8,1.0518999999999998
K4MgV2O7,1.0518999999999998
Ba10BrN5Cl4,1.0519000000000005
Li32Ti3Cr13O48,1.0519000000000005
Li7Mn2(CoO4)3,1.052
MnCrH18(NF)6,1.052
RbBi4Se7,1.0521
CaCu(Si2O5)2,1.0521000000000005
LiMn2O4,1.0522999999999998
Li7Y7Zr9S32,1.0522999999999998
MgV4(O3F2)2,1.0523000000000002
KGe,1.0525
YMg30CuO32,1.0525000000000002
Li9Mn7O16,1.0526
CrPO5,1.0526
Cs3Cr2I9,1.0526000000000002
RbDy2Ag3Te5,1.0526000000000004
Zn2GeS3,1.0527000000000002
CaTiMn(PO4)3,1.0527999999999995
Li7V3P8O29,1.0528
LiBeAsO5,1.0529
Cl2O,1.0529000000000002
Li9Mn7O16,1.0529000000000002
Mg(AlSe2)2,1.053
AlGaCu2(AsO5)2,1.0530000000000002
Li2MnV4FeO12,1.0531
Te2MoCl4O,1.0531
Nd(YS2)3,1.0532
ZnCr2O4,1.0532
Be2CdPt,1.0532
PrMn7O12,1.0533
Li2VCr3O8,1.0533
Tl2PdCl4,1.0534
CuTeSeBr,1.0534999999999997
Nb2CoO6,1.0535
V4ZnO10,1.0536
Mn3SnO8,1.0539999999999998
Li9Mn2Co5O16,1.0540000000000005
MgAl4Tl4O12,1.0541
LiMnF5,1.0541
NiP4O11,1.0541999999999998
HfMg14NiO16,1.0542999999999996
MgV4O5F7,1.0543000000000002
K2Mg(CoO2)2,1.0543999999999998
LiMn2OF3,1.0545000000000002
Mg2Nb2CrO8,1.0545999999999998
Sr4MgFe2(SO3)2,1.0546000000000002
Nb2V3(Cu3S4)5,1.0546000000000002
NaMgNbSi(SO6)2,1.0546999999999995
LiMn8F33,1.0547999999999995
Li3MnCoO5,1.0549
SbO2,1.0549999999999995
Na8SnO6,1.0551
Pm2MgSe4,1.0551999999999997
LiB2O3,1.0552
Li5Mn(CO3)4,1.0552
FeTeBr7,1.0553
Sc(CuS)3,1.0553
MgV6O5F19,1.0553
Li4V3P8O29,1.0553
Li24Mn5Cr7O36,1.0553
MgAu4Se4(ClO3)4,1.0554
Li3Mn2V3O12,1.0555
Li3Mn4F19,1.0555
Ca3FeRhO6,1.0555000000000003
Li4Mn3O7,1.0555999999999996
Na6PbO5,1.0556
Dy6Ge3Se14,1.0556
Li9Mn2Co5O16,1.0557
CdFe4NiO8,1.0558999999999998
NaNd3Ti3MnO12,1.0561999999999996
CuTeSeCl,1.0564
Re2MoSe4,1.0564
CsEr(TaBr3)6,1.0564
LiMn2P2H9O13,1.0564
TlPd3O4,1.0564999999999998
Co(Si2O5)2,1.0566
Li2TiCoO4,1.0566
LuCuPbSe3,1.0566000000000004
Tl3SiTe3,1.0566999999999998
Li4V3P8O29,1.0567
MgMn4(OF)4,1.0567
BaSrNbSbO6,1.0567000000000002
CaSnS3,1.0567000000000002
Cs2MnTe2,1.0568
Li5V3P8O29,1.057
Na2Zn2O3,1.0572
Na4Mg2Ta2Si3(SO8)3,1.0572
CeH8(SO6)2,1.0573
Li2V3P5O18,1.0574
La2CuBiS5,1.0575
MgFe4(OF)4,1.0577
K2Sm2As2Se9,1.0577
LiIn2CuTe4,1.0577
Li3BiO4,1.0578999999999996
MgFe2(ClO)2,1.0579
CoH12C2(Br2N)2,1.0579
Li3Co2O5,1.0581
Mn2CdTeO6,1.0581
K2CoH2(SeO5)2,1.0581
NaMnO2,1.0583
Nb2Zn2TeO8,1.0583
MgCr2O6,1.0584
Nd2MgSe4,1.0584000000000002
KNa2(NiO2)2,1.0584999999999998
Zn(BiO2)2,1.0585999999999998
Li2P2PdO7,1.0586
KZr6CCl15,1.0586000000000002
CuSe3I,1.0589
Li3MnCoO5,1.0589
PdSeO3,1.0589
SbC4S2Cl3O2,1.0589
Be2Tl2Ni(O3F4)2,1.0590000000000002
K2Mo6H2Cl14O,1.0591
Sr3MgO4,1.0591000000000002
Ta(TeBr3)2,1.0592
MnNi7O8,1.0592000000000006
Pr2Mn3Sb3O14,1.0592999999999997
Bi(TeBr2)2,1.0593
Cr4OF11,1.0593
SrCu(Si2O5)2,1.0593000000000004
CaY4(BiO3)4,1.0593000000000004
MgCd2Te2(MoO6)2,1.0593000000000004
TaSnRh,1.0594
Mg(BiO2)4,1.0595
NaPrTe2,1.0597
Li4Nb2V3Ni3O16,1.0597
MgV8(PO4)12,1.0597
LiTiV2CrO10,1.0597
Mn15CrO32,1.0598
V2O3F,1.0598
MgV6O5F19,1.0598999999999998
Ti2N2O,1.0598999999999998
MgFe10O9F11,1.0599
MgFe4(OF)4,1.0599999999999998
Re2(HgO2)5,1.06
Te6RhI3,1.0601000000000005
KMg2AlFe(SiO4)3,1.0601999999999998
K3Au3I8,1.0602
ScMo3O8,1.0602
Li6V3P8O29,1.0602
NiH2(CN2)2,1.0602000000000005
La(ErS2)3,1.0602999999999998
S5N2O2F,1.0602999999999998
Co3C9SO9,1.0603
K3LiGe4,1.0603000000000002
CrHg3F6,1.0604
Sr(BiS2)2,1.0604999999999998
Al2H30Se3O28,1.0604999999999998
Ba2Nd2Mg(Fe2O5)2,1.0606999999999998
Na2Te2As,1.0608
Sn3H6CNO7,1.0608
K6MgV2(SO3)2,1.0608000000000002
Na2InNiF7,1.0609
Ba2InBiSe5,1.061
Li3Mn2O5,1.0610999999999997
MgCr2O4,1.0611000000000002
Sm6Mn(SiS7)2,1.0611999999999997
Li3Mn2(SiO4)2,1.0612
V3O5,1.0613999999999997
LuSc(FeO3)2,1.0614000000000003
CaMg14CoO16,1.0614999999999997
Mg14CrCuO16,1.0614999999999997
Li32Ti3Cr13O48,1.0616
CaBi2(CO4)2,1.0618
CeMgS3,1.0618000000000003
Nd2AlNO3,1.0619999999999994
Li7Mn5O12,1.0619999999999998
Ca(WO2)2,1.0620999999999996
Li4V9O18,1.0621
Ba3Sr(CoO3)4,1.0621999999999998
Na4ZnSi2GeSO12,1.0622000000000005
Nd8AlSi3(NO5)3,1.0622999999999996
CaV2Ni2(P2O9)2,1.0623
AlAgO2,1.0623
LiMnV(PO4)3,1.0623999999999998
Na3CaFe4(SiO3)8,1.0623999999999998
LiTiV2O6,1.0624000000000002
BaHo2O4,1.0626
Na2Ni(H7N3)2,1.0626
MgCr2(Fe2O5)2,1.0626999999999995
Na9Co2O7,1.0627
Li4VFe3O8,1.0627
Li3Fe(PO4)2,1.0627
La(LuS2)3,1.0627000000000004
Mn6OF11,1.0628
Rb4SnSb6,1.0629999999999995
CsSn,1.0631
U2S2O19,1.0632
CoPO4,1.0632
Nd16(Mo3O8)7,1.0632
LiMn2TeO6,1.0634000000000006
Mo2SeS3,1.0635000000000003
SiO2,1.0636
Dy4MgS7,1.0637999999999996
HoMnO3,1.0638
MgMn2(SeO3)4,1.0638
Mg6MnVO8,1.0638000000000003
CuH32W6(Cl6O11)2,1.0639
RbEu2Cl5,1.0639000000000003
Y4MgS7,1.064
Mg2Fe7O12,1.064
W3I8,1.064
MgVOF2,1.0642999999999998
Er4MgS7,1.0643000000000002
Sr3MgV2O8,1.0643999999999996
Cs2Nb6PbCl18,1.0644
Pr2MgSe4,1.0644
LiVOF2,1.0644000000000002
Li2Co2P2O9,1.0645
Li7Mn2(CoO4)3,1.0645000000000002
YSI,1.0646999999999998
MoO2,1.0647000000000002
Al(FeO2)2,1.0647000000000002
Si7Tc4,1.0648
Li7TiFe3(PO4)6,1.0648
CaMg14CrO16,1.0648
VP2O7,1.0649
Rb14ZnGe16,1.0649
Ti2FeO5,1.0649000000000002
V3O7F,1.0649000000000002
Li4Mn3O7,1.065
Li4MnSn2Se7,1.0650000000000002
HfSO,1.0651000000000002
La8Hf4MgO20,1.0652
Sr2InSbO6,1.0652
Li2ZnCdP2,1.0652
Sr3TaCoO7,1.0652000000000004
NaBiTe2,1.0652999999999997
Re2(HgO2)5,1.0653
MgV2(MoO5)2,1.0653
K2Zn6O7,1.0654
WN2,1.0654000000000003
Nd6S4N3Cl,1.0654999999999997
Co3TeO6,1.0655000000000006
Ca2MnAl2Si4BO15,1.0656
InGa(AgTe2)2,1.0657
H12RhC8NO6,1.0657
Li2TiV3O8,1.0657
In2CuTe3I,1.0658
Mg(MoO2)4,1.0658
Li3V3(BO5)2,1.0658999999999996
HoBiTe3,1.0659
Li4Mn3CoO8,1.0659999999999998
MgV6O5F19,1.066
Rb3NaMg(MoO4)2,1.066
AsS(IF3)2,1.066
Na4MgSi3Sn3(SO8)3,1.0660000000000005
PdSO4,1.0661
CaW2O5,1.0661999999999998
Na4Mg(CoO3)2,1.0662
Mg(BiO2)4,1.0663
Rb2VAgSe4,1.0663
Fe3O4,1.0663
BaNaHfBiO6,1.0663
K2BiAuF6,1.0663
Li6Te2O9,1.0665000000000002
Hf2N2O,1.066599999999999
BiS2,1.066599999999999
Li2V3SnO8,1.0666000000000002
MnMoO4,1.0666999999999995
CoBO3,1.0667
DyCuSe2,1.0667999999999995
AlSi2HC6NCl3,1.0668
LiSm(C2O5)2,1.0669
KLiMnO2,1.0669999999999995
Li47(NiO4)8,1.067
Li4Fe2Ni3Te3O16,1.0670000000000002
VOF,1.0671
Li4V3P8O29,1.0671
Li7(Mo3S4)4,1.0671
LiCoP2O7,1.0671
Sr3(GaP2)2,1.0671999999999997
K2CuAs,1.0674
Li8CoO5F,1.0674
LiTiFe5O8,1.0674000000000006
LiCr4(PO4)3,1.0675
Li21(FeO4)4,1.0675
MgV5(MoO5)5,1.0675
Li3Nb4CuO12,1.0675999999999997
Li24Mn5Cr7O36,1.0677000000000003
PrCuS2,1.0678
Ba4TiP4,1.0679000000000003
Mn(CoO3)2,1.068
Ba3(AlAs2)2,1.0680000000000005
Li7Co5O12,1.0682
Ru7C20(SO10)2,1.0682
GeWO4,1.0682999999999998
SbHO3,1.0685
Rb2CuAsF6,1.0685000000000002
AlIn(AgS2)2,1.0686
CaMg14CO16,1.0687999999999995
K2InGaBr6,1.0688
GeWO4,1.0688
K2Sr(NbCl3)6,1.0688000000000004
La(TmS2)3,1.0688000000000004
Nd2MgSe4,1.0688999999999995
Ba(MgAs)2,1.0689000000000002
Fe3O4,1.0689000000000002
Gd2Zr2O7,1.0690999999999995
ZnInGaO4,1.0691999999999997
Ba2NdInSe5,1.0692000000000004
Na4MgV2O6,1.0692000000000004
MgCu2(MoO4)2,1.0692999999999997
Li5V3P8O29,1.0693
Li3V3P8O29,1.0694
ZnCuF4,1.0694
Li2U(WO5)2,1.0694
Mn2Nb2O9,1.0695
YMg30CoO32,1.0697
Li2Ti2MnNiO8,1.0697
SrSnN2,1.0697000000000003
CsZnN,1.0698
PtCl3,1.0698
V4O7F5,1.0698
LuMn2O5,1.0698000000000003
In4GeS4,1.0698000000000003
WBr6,1.0699
RbMgV2Fe(AgO4)2,1.0699
MgFe8(OF)8,1.0699999999999998
Te2Mo,1.07
Mo2H3(CO2)4,1.07
Li2SnBO4,1.0700000000000005
SbIrS,1.0700999999999992
MgZn2Te2(MoO6)2,1.0700999999999996
TeMo3Se7I6,1.0700999999999998
MnF3,1.0702999999999998
Li3P3WO11,1.0703
Ag3SNO3,1.0703
Ti4P8S29,1.0703000000000005
Li8MgCo13O28,1.0704
YCuSe2,1.0704999999999996
Li9Mn2Co5O16,1.0705
CaSmMnSnO6,1.0705999999999998
Cs4GeTe6,1.0706
Gd2TeO2,1.0708000000000002
Li9Mn2Co5O16,1.0709
CaSmCoO4,1.0709
TiCr2O5,1.0709999999999995
MgSc2Cr2O8,1.0709999999999995
LiCoSiO4,1.071
Rb8SnO6,1.071
Bi3Se4Br,1.0710000000000002
Bi2CO5,1.0710999999999995
MgCrInS4,1.0710999999999995
Li3MnCoO5,1.0711
Li2V(PO4)2,1.0711
AgH3O2,1.0711
MgFe4(PO4)4,1.0711000000000002
DyAgTe2,1.0711999999999997
Mg(MoO2)2,1.0712000000000002
ZrSiPt,1.0712000000000002
Li2Ni(PO3)5,1.0713
Na2Zr2Si3Ge2(SO8)3,1.0713
Sr5Cr3O12F,1.0715
MgV4O5F7,1.0715
WI4,1.0716
K2NbV(PO5)2,1.0716
Ti4S24Cl6O,1.0718
Nb3ICl6,1.0718
Li2Ti2V3O10,1.0718
Cu2AgPS4,1.0718000000000003
Li3V3P8O29,1.0719
K2BaLiCo(NO2)6,1.0719
K2AgAs,1.0719
Si2TeN2,1.072
NaCaFe2(SiO3)4,1.072
Li3V3O5F3,1.072
MgV4O10,1.0720999999999998
Ta4Se8SI8,1.0721
Li9Mn2P4HO18,1.0722
ErTl2P2Se7,1.0722
Ca12Mn8Si7(H5O16)3,1.0723
Fe7O8,1.0723000000000005
Cs2MoN(Cl2O)2,1.0725
BaSr2In2O6,1.0725000000000002
Li3V2(SiO5)2,1.0726
Ba2Li(NiO2)2,1.0726
Ca2S2O9,1.0726
SrCa7Ti3Mn5O20,1.0726
CoPO4,1.0727
H18Se3(NO3)4,1.0727
CsCrP2S7,1.0727000000000002
Ca2Al2FeSi4BO16,1.0728
CsDy2Ag3Te5,1.0728000000000004
HfBiO4,1.073
LiZn2(FeO2)4,1.0730999999999995
Cs2MoN(Cl2O)2,1.0733
WI3,1.0734
Ho4MgS7,1.0734
B2P6H60Ir2C18O3F8,1.0734
Al2Te5,1.0734000000000004
Li15V6(P8O29)2,1.0735
NaPH6,1.0735
La4MgCr3O12,1.0735
La(HoS2)3,1.0735
RbHgSbSe3,1.0737
CaCr3P3O13,1.0738
Dy3Mg2CrS8,1.0738
Ba3Cr2O8,1.0741999999999998
CaHoV2O6,1.0743
K3U2I7O26,1.0743999999999998
MgTa4(CuO6)2,1.0743999999999998
BaTiFe2(SiO5)2,1.0744000000000002
SrYMg6O8,1.074400000000001
Li24Mn7Cr5O36,1.0745
Li2TiFe2O5,1.0745
LiMnBO4,1.0745000000000002
MgAu4Se4(ClO3)4,1.0746
Li9CrN5,1.0746000000000002
CsHgSbSe3,1.0746000000000002
YMg6FeO8,1.0746000000000002
MgTl6Si2O7,1.0747
Li2CrSiO4,1.0747000000000004
Rb2(NbCl3)3,1.0748999999999995
YMgMo3O8,1.0749000000000004
Sm2MgSe4,1.0750000000000002
Sr8V6O19,1.0750000000000002
Li3V3(BO5)2,1.0750000000000002
CaCr2O4,1.0751
Li4V3P8O29,1.0751
BaLiZrBiO6,1.0751
MgV3SnO8,1.0751000000000004
Co2C5SO5,1.0752000000000002
AgBiSCl2,1.0752000000000002
NdNO4,1.0753
CsLa2CuSe4,1.0753999999999997
Mn2PH2CO7,1.0754
Zn3Fe16Ni5O32,1.0755
Na2Mg2Si3Ge6(S3O16)3,1.0755
BaMg30VO32,1.0755999999999997
Rb2CuBiCl6,1.0756
Li7V3P8O29,1.0756
TaIn3O7,1.0756999999999994
Rb7Th2(P2Se7)3,1.0757
Li8CoO6,1.0758
CuNiH16(CN)8,1.0759
Mg2Nb2VO8,1.0759000000000007
CsCeMg14O16,1.0759999999999996
LiCuS,1.0759999999999996
KV(CuS2)2,1.076
Li3V4(OF3)3,1.0761
MgWO3,1.0761000000000005
RbLaTiNbO6F,1.0761000000000005
LiVP2HO8,1.0762999999999998
LiCoSiO4,1.0764
Ba3MgMn3O9,1.0764999999999998
LiCuCO3,1.0766
K2CoPb(NO2)6,1.0766
Li4V3P8O29,1.0766
V4ZnO10,1.0767
K2(NbBr3)3,1.0769000000000002
MgCuF4,1.0769000000000002
CaPrMnSbO6,1.0769000000000002
Si4CO13,1.077
V2(PO4)3,1.077
Na2Mg(BiO3)2,1.0770999999999995
Na6Ti6Zn2Si5S7O48,1.0771
Li2VOF3,1.0771000000000002
Li7(CoO3)2,1.0772
Ti(SnO2)2,1.0774999999999997
K2ReCl6,1.0776
K2P4PtCSNO11,1.0776
CsFeBr4,1.0776
Li2TiV3O8,1.0776000000000003
NdCuS2,1.0776000000000003
CaLaVFeO6,1.0776000000000003
LiCo2P5O16,1.0777
ReNCl4,1.0777
Sr2CdCu(SO)2,1.0777999999999994
K2Ag2GeSe4,1.0778
MgAl2H4Pb2(O2F3)2,1.0779000000000003
Li7Mn2(CoO4)3,1.0779999999999998
Ba2SmInSe5,1.0779999999999998
LiTiRhO4,1.0782000000000005
MnV3O8,1.0782999999999998
MgV3FeO8,1.0783
Fe2CuH4(OF4)2,1.0783
LaNd(CoO3)2,1.0783000000000005
Bi3PbWClO8,1.0783999999999994
KSrZrBiO6,1.0783999999999998
NaCaSnP(SO6)2,1.0783999999999998
Na12Ca10Nb2Si3(S5O24)3,1.0783999999999998
LiV4O8,1.0784
K3ClO,1.0785
Rb3Au3I8,1.0785
Te2W,1.0785
MgV4(OF2)4,1.0785999999999998
K2(NbBr3)3,1.0786
CsCuS6,1.0787
FeH4C3O8,1.0787
LiVP2HO8,1.0787
MgV5O12,1.0788000000000002
Li32Ti3Cr13O48,1.0789
K2MgMo2P2(ClO5)2,1.0789
Sr7CaTi7MnO24,1.0789
K2P2Pd,1.0789
K4Li5Cr2O8,1.079
LiVP2HO8,1.079
CuH14C2N10(ClO3)2,1.079
Li6V3P8O29,1.0791
LiVPO5,1.0791
TiZnCo(PO4)3,1.0791000000000002
Ta(TeCl3)2,1.0792000000000002
Ca(CoO2)2,1.0792000000000002
Li2CrO3,1.0792000000000002
LiCoP2O7,1.0792000000000002
U7V5Ag3O35,1.0793
Tl4GeSe4,1.0793
Sb(WBr3)5,1.0793
La2MgFe2(WO6)2,1.0793
PrFeO3,1.0793000000000004
RbCuO,1.0794
Nd2Pt2O7,1.0795
Bi2PbS4,1.0797
NbCl4,1.0797
LiVP2HO8,1.0797
V5O12,1.0797
Li(Fe2O3)4,1.0797000000000003
K2Nd2Mg(SO4)4,1.0797000000000008
NaYZrS4,1.0797999999999996
SrPdF4,1.0798
Rb2AgAsBr6,1.0799
Ga3NO3,1.0799999999999998
LiVP2HO8,1.08
MgAg20(BiO4)4,1.08
BaMo2(P2O7)2,1.0800999999999998
LiFe2(PO4)2,1.0802
In3Pb3N5,1.0802999999999994
K2Cu(PO3)4,1.0802999999999998
Ag2PO3F,1.0803
CsAg2BiS3,1.0803000000000005
V3(OF3)2,1.0804
Ga3Ge3N5,1.0804000000000005
MoO2,1.0804999999999998
Zn2BiSbO6,1.0804999999999998
V4(OF3)3,1.0805
LiVP2HO8,1.0805
Li3V3P8O29,1.0805
MgTiMo(PO4)3,1.0805000000000002
MgFe3OF7,1.0805999999999998
Na8Ti3Fe(Si4O11)4,1.0806
MoW3(SeS3)2,1.0806999999999998
Mo2(PO4)3,1.0806999999999998
Fe(Si2O5)2,1.0807
Na3AlN2,1.0807999999999995
MgZn2(FeO2)4,1.0808000000000004
Zr2N2O,1.0808000000000004
Nd2Pd2O5,1.0808999999999995
V4(OF3)3,1.0809
Mg(MoO2)4,1.0809
NaMnAsCO7,1.0809
LiCr(PO3)4,1.0811
BaZnFe6O11,1.0812
Rb5Sn(PSe5)3,1.0812
Li24Mn7Cr5O36,1.0812
Yb(HoSe2)2,1.0812000000000002
VOF2,1.0812000000000002
La5TlTe8,1.0812999999999997
Li9Mn2Co5O16,1.0814999999999997
Ce3SnO8,1.0815
Na18Mg8Ta4Si9(SO8)9,1.0816000000000003
Na2InAgF6,1.0817
V4(OF3)3,1.0817
Mg30BiBO32,1.0817999999999994
CaV2O4,1.0818
Ca4Sb2S,1.0818999999999992
Li3V7O12,1.0818999999999996
Ba3TaAs3O,1.0819
V2P2O9,1.0819
VOF2,1.0819
Fe4Co(BiO3)5,1.082
V4(OF3)3,1.082
Rb4Mn(AsS4)2,1.0820999999999998
Li4V3Sn3(TeO8)2,1.0821000000000005
Cs4Mn2PdF12,1.0821999999999998
Li4V3P8O29,1.0821999999999998
GaBiN2,1.0822999999999996
Li4CrTe(WO6)2,1.0823
LiVP2HO8,1.0823000000000005
KLu(NbCl3)6,1.0824000000000005
Li2TeS3,1.0825
Te4Mo3W(SeS)2,1.0826000000000002
B20H26O,1.0827
LiTiFeO4,1.0827
MoW2(SeS2)2,1.0827
Li3Fe2(SiO4)2,1.0827
MgZn2Co2(SiO5)2,1.0827999999999998
Ti3Fe7O15,1.0827999999999998
Cs2GaSb2,1.0828000000000002
BiAuO2,1.0829
LiVP2HO8,1.0829
BaLaMgBiO6,1.0829000000000004
NaAuO2,1.0829999999999995
MgV4O10,1.0831
SrMg30SiO32,1.0831000000000008
Cs3Au2Br11,1.0834
PRhSe,1.0834
Li2TiFe2O5,1.0834999999999997
Y2MgSe4,1.0835
SrLaTiFeO6,1.0835000000000004
La(YS2)3,1.0838
MnZn(FeO2)4,1.0838999999999994
NiH24C6S6(BrN6)2,1.0839
Mo2P3O14,1.0839
NaCeMg14O16,1.0839
BaNb2Fe2O9,1.0839
Cs2ScAuI6,1.0839
Na5Fe2P2(CO7)2,1.084
Rb3P3(HO3)4,1.084
Zr6SiI14,1.084
K2MgCr2Cd(H2O5)2,1.0840999999999998
Ca11GaSb9,1.0841000000000005
NdFeO3,1.0842
YAgTe2,1.0842999999999998
MgCr2O4,1.0842999999999998
Ba5Cr3ClO12,1.0844000000000005