formula,band_gap (MP)
Sn(SeO3)2,2.5822000000000003
Mo3PW9N3O40,2.5823
ScTa(PbO3)2,2.5824
NaZrNbSi2SO12,2.5824000000000003
Na3BS3,2.5824000000000003
Na4Hf2Nb2Si5SO24,2.5825
BaLaI5,2.5826
ZnCo(Si2O5)2,2.5827000000000004
Li2Fe2(SiO3)3,2.5827000000000004
Ba(CO)4,2.5828
K2Mo(SO5)2,2.5828
K3CoPCO7,2.5829
Sr2MgCuWO6,2.583
LiTiNF6,2.583
CoH20S2N6ClO4,2.5831
NaCa2SiO4F,2.5833
Li2Cr5(PO4)4,2.5834
HgB4O7,2.5834
BaCaSnWO6,2.5834999999999995
LiMnF4,2.5835
La2Mo4O15,2.5836
LiVPO4,2.5836
Mg2TiO4,2.5837000000000003
LiCoPO4,2.5838
Na2CrO4,2.5838
Tb2SiSeO4,2.5839
TiSCl6O,2.5839
SrV2O6,2.5842
H3CSe,2.5842
Tl3AsO4,2.5842
Na5Al3H14,2.5843000000000003
Cs3MgH5,2.5844
Li2MnSiO4,2.5844000000000005
Li3Cr4PH3O16,2.5845
K2LaTa5O15,2.5845
Na8Mg2Ta2Si5SO24,2.5846
Tb3NbO7,2.5846
MnH14C8(NO3)2,2.5846
FeP2HO7,2.5846
Na2AlB(As2O7)2,2.5847
Li4Zn(PS4)2,2.5848000000000004
Y2Ti2O7,2.5848000000000004
La2ZnGa2S6O,2.5848000000000004
Na10TaIn7Si6(SO8)6,2.5849
Ta2Mo2O11,2.585
Li6Zn3(PS4)4,2.585
Li6MnV3(PO4)6,2.585
Li3VPCO7,2.5852000000000004
Ti3Zn2O8,2.5854
HgH24C8(I2N)2,2.5854
Ca3Sn2O7,2.5854000000000004
B2TeO6,2.5855
LiBi3(ClO2)2,2.5855
CaCrBi12(Mo2O17)2,2.5855
Ba2TaBiO6,2.5855
HgSb3XeF17,2.5858
TaAlO4,2.5859
NaAgS2O3,2.586
Na7MgIn3Si3(SO8)3,2.586
GdInO3,2.586
MgSbOF3,2.5861999999999994
NaMo2P3O13,2.5862
MgMn2Al2O6,2.5865
Ru(CO)4,2.5866
Sm3NbO7,2.5867
Rb2TlGaCl6,2.5867
Te2Pb3(ClO3)2,2.5868
UP2H15C5NO13,2.5868
Nd3SbO7,2.5869000000000004
NaHf2Nb2SiP5O24,2.5871
TiP2PbO8,2.5872
Li5FeO4,2.5873
NaCaMgAl(SiO3)4,2.5873000000000004
CsMo3Cl7,2.5874
CS2N2O,2.5874
C2S3N2,2.5874
BaV2Ni3(HO5)2,2.5876
RbTi3AlO8,2.5876
V3HPb5O13,2.5877
LiV(PO3)3,2.588
Tl3Hg2S3ClO12,2.5881
LiFeAs2O7,2.5882
KGd2Cl7,2.5883000000000003
BaCoBP2HO9,2.5883000000000003
NaMn6Al3H42(SO19)2,2.5885
Cs2NaAu3(CN)6,2.5885
AcI3,2.5886
Rb2Zn3S4,2.5887
C2S,2.5888
Li2VP2O7,2.5889
Na10Ti4Si9Ge4(SO16)3,2.5891999999999995
Na2Zn2S3,2.5893
Tb2MgS4,2.5893
LiSn3Sb(PO4)6,2.5894
Li2Fe3(Si3O8)2,2.5894
Na3TaS4,2.5894000000000004
Bi2MoO6,2.5896
Na2B2S5,2.5898
LiBP2Pb4O11,2.5899
LiH2BrO5,2.5899
Cs2SnCl6,2.59
TiFeO3,2.5901
Al2PbS4,2.5904
Gd(NO3)3,2.5904000000000003
K2YTi(PO4)3,2.5905
Ta6Zn3(FeO6)4,2.5905
Li5IO6,2.5907
K3NaTi2(SiO4)3,2.5908000000000007
Li5MnO3F,2.5909000000000004
Sm2MgMo2(I4O15)2,2.591
FeBi3(MoO6)2,2.5911
KVH2SeO7,2.5911
TiBi6(PO8)2,2.5912
LiCrO2,2.5912
H12OsC4N(OF)3,2.5912
KRbMnV2O7,2.5913
RbLiBi2(MoO4)4,2.5914
Rb5SiHO5,2.5914
Te4MoW3Se4,2.5915
Pr4Si2S3O7,2.5915
SrMg3O4,2.5915000000000004
Na5Ti2Si3Sn2(PO8)3,2.5917
Li2V(BO2)5,2.5921
NaMnP2H10NO10,2.5922
TaTiTlO5,2.5923000000000003
BaTi(PO4)2,2.5924
Na11TiNb2Si4P2O25F,2.5924000000000005
Rb2TiCr2(MoO4)6,2.5925
VH10(CO5)2,2.5926
Sm4Si2S3O7,2.5927
Mn3Zn(IO3)8,2.5927
Bi13Mo6(AsO14)3,2.5928000000000004
Ba4LaTiNb3O15,2.5928000000000004
LiFeF4,2.593
Na3MgSn(PO4)3,2.593
CsLiMg14O15,2.593
KInI4,2.5931
NaLiTi3O7,2.5933
C,2.5933
Sn2(SO4)3,2.5934
CoH4SeO5,2.5934
HoTa5Ag2O15,2.5934000000000004
TbInO3,2.5935
LiFeF4,2.5936
As2Pb(XeF6)3,2.5938
Li14Mn2O9,2.5939
Li6Zn3(PS4)4,2.5939
Cs2TaAgS4,2.5939
CsSmGeS4,2.5939999999999994
SrCo2H2(SeO3)4,2.5941
Li7V2P7O24,2.5942
Rb2TiFe2(MoO4)6,2.5943
K2LiV5H10O19,2.5943
KCrP2O7,2.5944
Li4TaN3,2.5944000000000003
KLiNiO2,2.5945
FeH8(ClO2)2,2.5945
BiPb2F7,2.5946
Te2MoO7,2.5946
Ca5Al11TlSi13O48,2.5947
Ca3Zr2Fe2SiO12,2.5948
Cs(BBr)6,2.5949
Tl5V3O10,2.595
NiH4(IO4)2,2.5950999999999995
Rb4CdCl6,2.5953
Cd5Mo2(P2O7)4,2.5954
Na9TaZn5Si3(SO6)6,2.5955
K3HWS4O,2.5955
NaLiTi3O7,2.5955
Na2UF8,2.5956
CoSn2H12(OF)6,2.5957
K3AsS3,2.5958
KTbCr2O8,2.596
Te2Mo,2.5962
Ba3GeO5,2.5962
SbSNF5,2.5962
Li2Mn2Si2O7,2.5963
Na21Ta4Zn8Si3(P5O24)3,2.5966
NdTiNbBi2O9,2.5968
Na7Ti2In2Si3(PO8)3,2.5968
Mg2SbWO6,2.5968000000000004
LiFePO4,2.5969
Dy10Ti6O27,2.597
CdH6C(IN)3,2.597
SrMg14CrO16,2.5970999999999997
Na3Sc2Ge2P5SO24,2.5971
CoH32C8S4(NO5)2,2.5972
Ba6Ti17O40,2.5972
GdTiCdSbO7,2.5972
LaAg(MoO4)2,2.5972000000000004
Rb3Ti3(PO4)5,2.5974000000000004
CuAs2H6C2IO2,2.5975
La4MgGa2(FeO6)2,2.5975
SbSe(BrF2)3,2.5975
MgV2O6,2.5975
HfNF5,2.5976
KPH12PtC2N2(ClO2)2,2.5977
Zr(SeCl6)2,2.5978000000000003
Ba2Ti3Nb4O18,2.5979
AlSeCl7,2.5979
Li5Fe5Si7O24,2.5980000000000003
Li2BiP3O10,2.5981
Ga8As16H102C32(S12O)3,2.5981
Mg2Nb3Bi3O14,2.5981000000000005
TiNb6Tl2O18,2.5982
MgCoSiO4,2.5985
Na3Ir(NO2)6,2.5985
K2CeAgBr6,2.5986
Na6Y3NbSi2(PO6)4,2.5986
LiHf2N3,2.5987
Li4Co2Ni3Sn(PO4)6,2.5987000000000005
Ca8Al9Fe3Si12(HO13)4,2.5988
Li10Zn(PS4)4,2.5988
NaLaS2,2.5989
HfTiO4,2.5991000000000004
VOF3,2.5992
Li2Cr2Si5O13,2.5992999999999995
CaMnSiO4,2.5994
SnGeO3,2.5994
GaSi3C3N,2.5994
MnH12C8S2(NO)2,2.5994
LiFeP2O7,2.5994
Ca(ClO2)2,2.5997
Na10Si9Sn8(SO16)3,2.5997000000000003
Li2HN,2.5998
CrP3H18C6(SO)6,2.5998
Li2V(CO3)2,2.5998
NaHfMg6O7,2.599800000000001
Ni5Sn(BO5)2,2.5999
Ba5Nb4O15,2.5999
Na2LaInSi(SO6)2,2.6
Li6Mn5Fe(BO3)6,2.6001000000000003
Ba2MgZnWO6,2.6002
K2YCuCl6,2.6002
P3N5,2.6005
LiTi2(PO4)3,2.6006
Li2VP4(H2O3)6,2.6006
Na14Ca4Zn4Si3(S3O16)3,2.6007
LiFe(SiO3)2,2.6008000000000004
LiVO3,2.6009
Nd2SiSeO4,2.6009
LaTl(WO4)2,2.6009999999999995
CrHO2,2.6009999999999995
HgH10C3Br3N,2.601
BaAs2Xe5F22,2.6011
FeP(H2O3)2,2.6012
Na3H7Os,2.6014
Na3MoF6,2.6015
La2Ti2SiO9,2.6015000000000006
Li2CoSiO4,2.6016000000000004
TlPbCl3,2.6017
K2H4Pt,2.6017
Na6Zn7Sn(SO4)12,2.6018
Ca2PN3,2.601800000000001
NaNb2SiSn2P5O24,2.6019
Co(PO3)2,2.6019000000000005
P2H6C5N2Cl4O,2.6021
Na5Hf2Nb2Si5PO24,2.6021
Na2Ca(AsO3)4,2.6021
LiVPO4,2.6021
Li2CrO4,2.6021
VH9C3O4,2.6022
Na12Ca3Fe2(SiO3)12,2.6023
NaTi2(PO4)3,2.6023
ZnH13RuN5(Cl2O)2,2.6024000000000003
HgS2O7,2.6024000000000003
SmCoSe2ClO6,2.6024000000000003
LiCoPO4,2.6024000000000003
Bi14Mo5O36,2.6027
Na9NbZn5P6(SO12)3,2.6027
Na7Ti3Nb(SiO4)6,2.6027000000000005
VCl3O,2.6029
LiFeSiO4,2.6029
Nb2PbO6,2.603
CsHgC3(SN)3,2.6031
Li6Mn5Fe(BO3)6,2.6031
Sm3NbO7,2.6033000000000004
S,2.6034
NaLaMgTeO6,2.6035000000000004
La6S3(OF4)2,2.6035000000000004
Li2Co2(SiO3)3,2.6035000000000004
BaZn(SeO3)2,2.6036
Li3Sb3P8O29,2.6036
Sr2V2Se3O13,2.6038
Na10Y7Nb(PO4)12,2.6038
Na8Ca2Ta2Si5SO24,2.6038999999999994
Bi14MoO24,2.6039
LiV(PO3)3,2.604
MgMo2P2O9,2.604
Na6Ca4Ga4SiS11O48,2.604
Sr4Zr3TiO12,2.604
CoSiO3,2.6041
Li6Ti8Ni(PO5)8,2.6041
Li6Mn5Fe(BO3)6,2.6042
Na7CaGa3Si3(SO8)3,2.6043000000000003
Li6Mn5Fe(BO3)6,2.6044
MgMo(WO4)2,2.6044
AgH4CSN2Cl,2.6044
RbVH4(OF2)2,2.6044
HgSeO3,2.6045
Zn2SiO4,2.6045
HS8N,2.6047
LiMn(Si2O5)2,2.6047
NaPr4I7N2,2.6048
KGaI4,2.605
Rb2SeCl6,2.6051
BaLa4Ti4O15,2.6052
Li2V(CO3)2,2.6053
Na4ScNb(SiO4)3,2.6053000000000006
BaSr2Tm6O12,2.6055
KLi7(H2N)8,2.6055
In2Sb2H16C4S7N2,2.6056
Rb3H5Pd,2.6057
CsMg30BO31,2.6057
TeMoWSe2S,2.6057
Mo6PbCl14,2.6058000000000003
RbTi2(PO4)3,2.6058000000000003
LaMg2H7,2.6059
KOsNO3,2.6059
Cr2CoO4,2.6060000000000003
Cs5Re6S8Cl7,2.6061
Na2Al2Si3(HO3)4,2.6061999999999994
Sm3NbO7,2.6062
Sb2H6CS(ClO)6,2.6062000000000003
FePH5NO4F,2.6063
V2Pb2O7,2.6064
LiFeP2O7,2.6064
Rb2Bi4O7,2.6064000000000003
Tb4Si2S3O7,2.6065
PbClF,2.6066000000000003
NaLaNbInO6,2.6066000000000003
Lu2MgS4,2.6067
AlGaO3,2.6071
K2Te(WO4)3,2.6071
HfTl2Fe2(MoO4)6,2.6073
Li6Zn3(PS4)4,2.6073000000000004
Li2Mn(SiO3)2,2.6074
NdMoClO4,2.6074
MgBiAsO5,2.6074
Li3Fe2(PO4)3,2.6074
Li3Co5OF11,2.6076
Na3Rh(NO2)6,2.6076
Na6YNb3(SiO4)6,2.6078
LiMnF4,2.6079
VAgTeO5,2.608
AsS2NF6,2.608
RbMoIO6,2.6081
CaTi8Zn2O19,2.6081000000000003
Zr7(NO2)4,2.6082
Tl4V2O7,2.6082
Na3DyTi2Nb2O12,2.6082
KNi3As3O11,2.6083
ScV(SeO4)2,2.6083000000000003
Na2GdCl5,2.6084
TiPCl7O,2.6085000000000003
Gd2Si2O7,2.6086
H3CN4O,2.6086
Rb2Mo2H4C4O15,2.6086
Sr2V4Te2H2O17,2.6086
Zn2NiWO6,2.6086
NaPb2IO6,2.6086
Ni3TeMo2O11,2.6087
Lu2MgS4,2.6087
Bi5O7F,2.6089
Sn2P2SO12,2.6089
SrZnF2,2.609
Cd2Fe(CN)6,2.609
Li6W2O9,2.6091
TaAsPCl13,2.6094
CoH15N6(ClO)2,2.6095
BaHfZrSnO6,2.6097
NbAlO4,2.6097
KSmHfZrO6,2.6097
Dy2Zr2O7,2.609700000000001
K2NaVOF5,2.6098000000000003
K2Ti8O17,2.6099
Ba3GaSe4Cl,2.6100000000000003
Na3ErTi2Nb2O12,2.6103
Li2FeSiO4,2.6104000000000003
CaTi4O9,2.6104000000000003
Dy4Si2S3O7,2.6106
TiP2O7,2.6106
KGdCO3F2,2.6106000000000003
Na6Zr2Ti2Si5SO24,2.611
Li6Zn3(PS4)4,2.6112
Li4Mn7(PO4)6,2.6112
Li6MoN4,2.6113
Rb5Te3H4NCl18,2.6114
Li6Ca12W4N16O3,2.6114
V2Cd3O8,2.4714
Ca3(BN2)2,2.4714000000000005
Na3GdTi2Nb2O12,2.4715
Tl2SeO4,2.4715
Na4ScTiSi2PO12,2.4717
Na10Ta4Ti4Si11SO48,2.4718
V3Zn7H3SO19,2.4718
LiBi(WO4)2,2.4718000000000004
HoBiO3,2.4719
Al2CoO4,2.4719000000000007
Ba3(BrO)2,2.472
Li3Cr(PO4)2,2.4721
Li5InO4,2.4721
Na3Ti4SiP5O24,2.4722
Sb3IO4,2.4722000000000004
Li2NiP2O7,2.4723
LiCrSiO4,2.4723000000000006
K2V(PO4)2,2.4724
Li2VPO4F,2.4724
H5CN7O2,2.4724
Gd2Ge2O7,2.4725
Li3VF6,2.4726
Li4VF6,2.4726
Li5Cr3NiO8,2.4726000000000004
TaInSi(SO6)2,2.4726000000000004
NaLiTi3O7,2.4727
KNaMg30O31,2.4729
Sr3La4O9,2.4729000000000005
KUP(H2O3)3,2.4731
Nb5P7O30,2.4731
Mg3Co2(GeO4)3,2.4734000000000003
SrCaGdNbO6,2.4736
K2AlAgCl6,2.4737
SrCdAs2O7,2.4738
HBr,2.4739000000000004
Ti(PO3)4,2.474
LiMo2P3O13,2.474
Na8La3NbSi4(PO12)2,2.4741
Na3NdTi2Nb2O12,2.4741
Na2SnO3,2.4741000000000004
CSN2,2.4742
Li4TiS4,2.4742
LiMoAsO6,2.4743
CaNb2P2O11,2.4743
Ba4LaTiNb3O15,2.4743000000000004
CsTi3P5O19,2.4743000000000004
Na5H7(Se2O9)2,2.4744
MgGeO3,2.4744
UOF4,2.4746
KCo(PO3)3,2.4746
Na4Ti7O16,2.4748
CaPbI4,2.4749
Na2ScTa3Si4(SO12)2,2.4749
Li3VF5,2.4749
Ba10MgAs6(ClO12)2,2.475
Ta3Al(PO4)6,2.4751
Rb2V2Cu(PO6)2,2.4751000000000003
KNb3O8,2.4752
LiFe(PO3)4,2.4753
FePH5CO8,2.4753
Na4NbIn(SiO4)3,2.4753000000000003
Na6Ta4Si9Sn4(SO16)3,2.4754
Li2VF4,2.4755
Li2MnP2O7,2.4757
Li3VF6,2.4757
MnAl2Sb2(PO4)6,2.4758
Y6TeO12,2.4758
NaHfNbSnO6,2.4758
CaNiAsHO5,2.4759
Mo2PbSe2O11,2.476
Cr(PO3)5,2.4761
YBiO3,2.4761
LaMgI5,2.4762
KFe(SO4)2,2.4763
Ca4Al11Si13(AgO16)3,2.4763
Ta9VO25,2.4763
Na14Y3Nb5(SiO4)12,2.4763
Ba4Li(BN2)3,2.4764
LaAlH6,2.4765
MnInF3,2.4765
Ba2FeP4HO14,2.4765
Ti2H2CSe4Cl16O5,2.4765
Na2LiNF6,2.4767
C3N4,2.476800000000001
KAgC2,2.4769
KMgV5(H8O11)2,2.4770000000000003
RbNa2V5H10O19,2.4772
Cd4Mo3WO16,2.4773
Gd3SbO7,2.4773
ZnFeF5,2.4774000000000003
Ca2Nb4P6(SO12)3,2.4775
Na3Mo4P5O24,2.4775
Fe4Ge(CO)16,2.4775
Na5Nb2Si5Sn2PO24,2.4776
Li2VF4,2.4777
Ba2Na2O3,2.4777
AsBrKr2OF12,2.4777
P2Pb(XeF6)3,2.4778
LiTi2(PO4)3,2.4778
Na2SrAl4(B2O7)2,2.4779
S,2.4779
SrTa2Bi2O9,2.4779000000000004
MgVO3,2.478
Ba2ErMgSbO6,2.478
Na4Ti5O12,2.4780999999999995
Na4Ti2Nb2Si5SO24,2.4781
LaFeTeO6,2.4782
Na7MgSi3Sn3(PO8)3,2.4782
Ba2SmMgSbO6,2.4782000000000006
Li2Cr2SiO6,2.4783
Na6Ca4Zr4Si3(S3O16)3,2.4783
Sr2SnS4,2.4784000000000006
Sr2CeZrO6,2.4785
Na4Zr3ZnSi3(SO8)3,2.4786
Li2Cr2O7,2.4787
SbTe6H12C4N(OF5)6,2.4787
RbSO4F,2.4788
HgTe2(OF5)2,2.4788
NaTiGe(PO4)3,2.4788
SrCoAs2O7,2.4789
Na12Mg4Ta2Si6(SO12)3,2.479
NaCd4(PO4)3,2.479
Na4ScNb3Si4(PO12)2,2.4791
MnP4O11,2.4792
Pr2Mg(NiO3)2,2.4792
Gd2GeMoO8,2.4793000000000003
Rb2W2O7,2.4794
LiCrCO4,2.4796
LiCr(GeO3)2,2.4797
Bi2(MoO4)3,2.4798
Na2TiS2O,2.4798
Na21Ca10Nb2P15(SO24)3,2.48
Na9Nb5Zn(SiO4)9,2.4801
CIClF4,2.4801
ZnWO4,2.4802
SmCrO3,2.4802000000000004
Na3MgTa5Si6(SO12)3,2.4803
CaGd2O4,2.4804
KMgFe(PO4)2,2.4804000000000004
WO2,2.4805
Mg(SbO2)2,2.4805
LiMgCoF6,2.4806
Na14Ga4Si9Sn4(SO16)3,2.4807
Mg6CrSiO8,2.480700000000001
CsMo(PO4)2,2.4808000000000003
Pr2MgS4,2.4808000000000003
LaTl(PS3)2,2.4808000000000003
CaAl2Si6(HO4)4,2.4811
Ca3Si3(WO6)2,2.4811999999999994
Na4CaZr3Si3(SO8)3,2.4812
Ho2Zr2O7,2.4812
Sr3La4O9,2.4813
Li2VOF4,2.4813
LiMnF4,2.4813
Tl2SnCl6,2.4814
Sm2(CN2)3,2.4814
ScTaSi(SO6)2,2.4815
Na2La3Ta5(PO4)12,2.4817
CsNb2BiO7,2.4818
Rb7GdFe6(P4O17)2,2.4818
LiFe(PO3)4,2.4819
BaMo2(PO4)4,2.4819000000000004
Al8Zn3CdS16,2.4821
KMoN2,2.4821
Pb2Se(NO4)2,2.4821
Mn2Zn(PO4)2,2.4822999999999995
Cs2V5H5O16,2.4826
CsSiBiS4,2.4826
KNaTi4(PO4)6,2.4827
Mg2Nb2FeO8,2.4827000000000004
Mo8P9H56N12ClO56,2.4828
K2NaCo(NO2)6,2.4828
MgFe2(OF)2,2.482800000000001
Mn2SnC10(BrO5)2,2.4829
Li5VF8,2.483
Sn2H10C4N2O9F2,2.4831
K6Ti2S6O,2.4834
Li3V2P5O16,2.4835000000000003
B2(CN2)3,2.4836
NaCr(GeO3)2,2.4837
AlMoP2O9,2.4838
CSNOF5,2.4838000000000005
MgTiNb2(PbO3)4,2.4839
BaYSnSbO6,2.4839
Cs3HgBr5,2.484
HI3O8,2.4841
Na3InSiSn(PO6)2,2.4841
Mg2Nb2CoO8,2.4842
NaNb3O8,2.4842
Li2Cr3SbO8,2.4843
Na5Te2H36AuO28,2.4843
NaMoPO6,2.4843
Hg3As2(HO4)2,2.4844
CaMg6CdO8,2.4845
MgScNi2SbO6,2.4845000000000006
Li3BiO3,2.4847
Li2CaTa2O7,2.4847
RbInF3,2.4848
Li6Ti2O7,2.4848
K2NaV5H10O19,2.4849
PH9C3Br3N,2.4849
Ni17(As3O16)2,2.4849999999999994
Mg2CrSbO6,2.4850000000000003
Ti3(HO2)4,2.4851
KNaS,2.4851
Mg30FeCO32,2.4853
Na10La7NbSi6(SO8)6,2.4853999999999994
LiSn2(PO4)3,2.4853999999999994
Na2Sn2C3(O2F)3,2.4854
TbCrO3,2.4854000000000003
Ca6Ti5AlSi6O29F,2.4854000000000003
Na6Ca4In4SiS11O48,2.4857
Ba3(BN2)2,2.486
Co3H2Se3O10,2.486
Cs2PtC2(OF)4,2.4863
HfCoO3,2.4865
Ca2HfTiO6,2.4866
Bi4O5F2,2.4866
KSbO3,2.4868
LaMgI5,2.4868
Na6MgTi3Si2(PO6)4,2.4868
Mg6CoNiO8,2.4869000000000003
TaNbO5,2.487
Na6Ti2Si5Sn2SO24,2.4870000000000005
NaGaGeP2SO12,2.4872
GdTa3O9,2.4874
K3NaSi3(GeO6)2,2.4875
AsS(BrF2)3,2.4875000000000003
Rb2MgNb2(TeO6)2,2.4876
LiCrPO4,2.4876
Sn3P6WO24,2.4876
Ba2NaNb5O15,2.4877
Rb2CdSiO4,2.4877
Na3Nb2Al2SiP5O24,2.4877
LiV2P3O10,2.4879
S,2.4879
Li2VF5,2.488
Nd2P3H5WO9,2.4880000000000004
Tl2SO3,2.4882
Ba(AuF4)2,2.4882
Tm2(CN2)3,2.4883
Rb2YAgI6,2.4885
Sn9(O2F5)2,2.4885
FeC7(O2F)2,2.4885
CsNbV2O8,2.4885
BaP3NO11,2.4885
Na14Mg4In4Si5S7O48,2.4887
SmMg2H7,2.4889
SmV2IO9,2.4889
Rb3YO3,2.489
InBr3,2.489
Ga2Hg3Cl8,2.489
P4S5,2.4891
LiCrB2O5,2.4891
CsGdO2,2.4891
Ba4Sm4Zn3PtO15,2.4891000000000005
Bi17As5Pb5O43,2.4892
NaZr2Ge2P5SO24,2.4892000000000003
Na15Nb2Zn10P9(SO8)9,2.4893
Mn4SiTeCl2O7,2.4894000000000003
Cu2H10C6S3N4,2.4895
Si(PbO2)2,2.4895
Na8MgSi4Sn3(PO12)2,2.4896
La2MgO4,2.4898
Cs3Sb2Cl9,2.4898
K2NdP2S7,2.4898
GeSb2H16C4(S3N)2,2.4899
CaTi4(PO4)6,2.4899
Ba2DyMgSbO6,2.4899
RbCdH2I3O,2.49
LiFe(SiO3)2,2.4901
Na5Ca2Ta2SiP5O24,2.4901
Li6CaCeO6,2.4901
Mg6MnCrO8,2.4901
Ge7H18O23,2.4902
Li2FePCO7,2.4902
LiVF5,2.4903
KMoP3WO12,2.4904999999999995
H5CSN2ClO4,2.4905
Na5La2Ta2Si3(PO8)3,2.4905000000000004
MgH4C4S4(OF)12,2.4907
Ca(SbO2)2,2.4907
Na2Zr3ZnSi2(SO6)4,2.4907
CdH4(C2O3)2,2.4908
LuPaO4,2.4908
Sm2S2O,2.4909
Cs2HgBr4,2.4909
S,2.491
K2MnP2O7,2.4911000000000003
Li3Nb3P8O29,2.4912
CaFeSn(PO4)3,2.4913
Mg2Nb4P6(SO12)3,2.4914
Li2Te,2.4914
NaNb4Tl3P2O17,2.4915000000000003
BaMo3O10,2.4915000000000003
NaHfMg6O7,2.4915000000000003
K2TaAgS4,2.4916
Al2Hg3Cl8,2.4917
BaSrCaSeO6,2.4917
CsCdCl3,2.4918
Li3FeO2F,2.4918
Na24Ca10Ta2Si9(SO8)9,2.4919
LiMgCr3(SO4)6,2.4919
C8Cl4O3,2.4919
ThCr(IO5)2,2.492
K3NaCr2O8,2.4922
Na2LaTaSi(PO6)2,2.4922000000000004
Na21Ta8Zn4Si15(PO24)3,2.4922000000000004
Ta9Pb12O20F29,2.4923
La4Si2S3O7,2.4924
La3Si2S8Br,2.4925
P4N3Cl11,2.4926
Na6Ta4Zn2Si6(SO12)3,2.4926000000000004
Li3Fe(PO4)2,2.4927
Sn2IF3,2.4928000000000003
Na3Ca5Ta(SO4)9,2.4929
ZnHgC4(SN)4,2.4929
V2Bi4O11,2.4929
Ba5Tm2ZrAl2O13,2.4931
LiV(PO3)3,2.4931
Na3ScGe3(PO4)6,2.4931
Sn3H4(NO5)2,2.4932
U(HO2)2,2.4932
Tb2MgS4,2.4932
BaLaI5,2.4932
V3(PO4)2,2.4933
Zn3WN4,2.4933
ErP2H7O10,2.4933
LiCo3OF5,2.4933
NaZrGe(PO4)3,2.4933
HOs3C10ClO10,2.4933
Na3CoPCO7,2.4933999999999994
P2S3,2.4934000000000003
Hf2N2O,2.4934000000000003
Al2ZnS4,2.4934000000000003
Y2MgS4,2.4935
ScPaO4,2.493500000000001
Sn(SO2)2,2.4937
Na2LaTaSi2SO12,2.4938
Na14Ca6Zr2Si5S7O48,2.4939
Bi5O7F,2.4939000000000004
RbIO4,2.494
MgZnO2,2.494
NaGaSiSn(SO6)2,2.4940999999999995
CoH9(NO)6,2.4941
Fe2(MoO4)3,2.4941
Ca2YSnO5,2.4941000000000004
Co2PHO5,2.4941000000000004
Na2Ga2Si3(HO3)4,2.4942
VF4,2.4943
KNO2,2.4943
SbIrC2(OF3)2,2.4943
Rb2GdCl5,2.4944
RbFeF4,2.4946
Na2V3O7,2.4946
Li6Zn3(PS4)4,2.4946
AlAgF4,2.4951
Sn(PO3)4,2.4952
Cs3Fe4(PO4)5,2.4953
InH36C12S6(IO2)3,2.4953
Ba2Tl(HO)7,2.4953000000000003
CaSn2(PO4)2,2.4956
Ca2Bi2O5,2.4957
Fe2(MoO4)3,2.4957000000000003
Na14Nb5Al3(SiO4)12,2.4958
La2Zn(SeO)2,2.4958
LiNi2OF3,2.4959
Nd4Mg2Ti3(Si2O11)2,2.496
InBiO3,2.4961
AlSCl7,2.4961
K2Sn5Cl12,2.4961
S,2.4963
K2MnH8(SO6)2,2.4963
ThNCl,2.4963
CaSmCrO4,2.4963
LiFe(GeO3)2,2.4963
KTbSnWO6,2.4964
GdTa7O19,2.4964
ZnH12C6(S2N)2,2.4966
CaGe2O5,2.4967
Na9CaNb5(SiO4)9,2.4969
Li3Fe2(PO4)3,2.4969
PWO4,2.4970000000000003
BaVOF4,2.4971
Li4Mn5P6WO24,2.4972
Te4Xe(OF5)4,2.4973
Zn3Fe2(SiO4)3,2.4973
PS,2.4974
NaScTiO4,2.4975
KMg14BO15,2.4975000000000005
FeH12C6N(ClO2)2,2.4976000000000003
LiSb3(PO5)2,2.4977
LiTiAlO4,2.4977
Na6NbAl3Si2(PO6)4,2.4979
LiTa3O8,2.4979
HC2N3,2.4981
Na3TiAlSi(PO6)2,2.4981000000000004
LiFe2OF3,2.4982
Ba2NdMgMoO6,2.4982
MgCoP2O7,2.4983
KV5Zn(H8O11)2,2.4984
Na3La2Ga2P3(SO8)3,2.4985
Na2TiFe(PO4)3,2.4985
Na7Mg3GeP5SO24,2.4986
CaSn2(PO5)2,2.4987000000000004
Na6ZnSn7(PO4)12,2.4988
LaH6(ClO3)3,2.4991
V2Ni(PO5)2,2.4991
Li3CrPCO7,2.4992
Li2CoCSO7,2.4992
Li2TiFe(PO4)3,2.4993
Rb2MgNb2(TeO6)2,2.4995
K3Mo2HCO13,2.4996
Sb5IO7,2.4997000000000003
CdCoH18N6Cl5,2.4999
Na3CrPCO7,2.4999
Zn(HO)2,2.5002
Ca9Cr(PO4)7,2.5002
Ba3Sr2Re3ClO15,2.5002000000000004
LiFe3OF5,2.5003
Zr5Ti7O24,2.5005000000000006
KCrClO3,2.5006
Fe3Sb5(IO3)3,2.5007
P2S5,2.5008
MgFe2Mo2(ClO4)2,2.5008000000000004
Dy2MgS4,2.5008000000000004
LiP3(WO6)2,2.5008000000000004
Na3Ti2SiSn2P5O24,2.5009
MgV5H20NO22,2.5010000000000003
Ge3Pb5O11,2.5011
K4CO4,2.5012
Li2Mn3F8,2.5012000000000003
BaDySnSbO6,2.5013
KCrPO4F,2.5013
Te2Xe(O2F5)2,2.5014000000000003
KLaHf2O6,2.5015
Na3MgBiO4,2.5015
Li4Co3(OF3)2,2.5015
Yb2H6Ru,2.5016000000000003
BaLaI5,2.5017
TaTeCl9,2.5017
CsCrAs2O7,2.5017
RbNa10Al11Si13O48,2.5018
CsLiZnS2,2.5019
LiFe(PO3)4,2.502
Li2CrO4,2.502
Li2MnV(PO4)2,2.5021
CsPPb(IF3)2,2.5021
Ti(TlS)4,2.5021000000000004
LaMgCrSnO6,2.502299999999999
Mg(AlS2)2,2.5023
Mn2InC10BrO10,2.5023
Li10Zn(PS4)4,2.5023
Li7Ti12NbO30,2.5023000000000004
CoTe2O5,2.5023000000000004
Li2AlVO4,2.5024
V2Pb2Se2O11,2.5026
LiVSiO4,2.5026
CrAsO4,2.5028
Co2H36N13Cl5O3,2.5031
LaAuO2,2.5031
CaMoF6,2.5031
NaNb2Ga2P5SO24,2.5033
Fe2P3(O3F)3,2.5033
Y2Ti2O7,2.5034
Li8CeO6,2.5034
CsLaS2,2.5035
Na2Y2Ta6Si7S5O48,2.5037000000000003
Ba3(ClO)2,2.5038
Li10Cu(SiO5)2,2.5039
Li2PtAu,2.5039
NaMg30BO31,2.5040000000000004
Nd2(N4O9)3,2.5043
K2Co2(MoO4)3,2.5043
Na14Zn5Sn3(PO4)12,2.5043999999999995
Ba2YMgSbO6,2.5044
K3BS3,2.5044000000000004
SrCo2(AsO4)2,2.5046
LiBi6B3O14,2.5046
K2NaH10IO10,2.5046
Na6Ti3ZnSi2(PO6)4,2.5046
AgW3Br7,2.5046
VH11C3(ClO2)2,2.5048
Na5ScNb3Si5PO24,2.5048
Na6Zr4Ga4Si5S7O48,2.5048000000000004
Li2Fe2(MoO4)3,2.5049
Bi2Te2O7,2.505
La2Ti3O9,2.5051
P3SN4Cl5O,2.5051
Na6Zr6Zn2Si5S7O48,2.5051
MgNi(GeO3)2,2.5052
Al(ClO2)3,2.5052000000000003
Li4Al3Cr3(SbO8)2,2.5052000000000003
Co3(PO4)2,2.5052000000000003
CoH2PbN3O8,2.5054
Gd3Si2Cl5O6,2.5055
KNa2GaO3,2.5055
Cd5Bi6(Cl3O2)4,2.5055000000000005
Nb4Zn2P6(SO12)3,2.5056
Na6Y4Ga4Si3(S3O16)3,2.5056
Na7Al10Si14(AgO16)3,2.5056000000000003
Li2CrFe(PO4)2,2.5057
Na15Ca10Nb2P9(SO8)9,2.5057
Na5Zr2Ti2Si3(PO8)3,2.5058
Cs2RbInBr6,2.5058
Na6MgSi2Ge3(PO6)4,2.5059
MgAl2(CoO3)2,2.5059
KFeBP2HO9,2.5059
Na2Y4Zr4Si3(S3O16)3,2.5059
Cs2Mo3SeO12,2.5059
NiTe2O5,2.506
B2S3,2.5061
Li4Mn2Fe3Sn(PO4)6,2.5061
CaV4O9,2.5061
KCrIO6,2.5061
NaLi3Ti2Al2(PO4)6,2.5061
Li2Ti3Sn(PO4)6,2.5061
CsBrF,2.5062
Ba2FeWO6,2.5062
NaZnFe2(PO4)3,2.5064
Li10Zn(PS4)4,2.5065
TiSCl6O,2.5066
CoH4SeO5,2.5067
NaTiSn(PO4)3,2.5067
Na3Hf2Ti2SiP5O24,2.5068
CaFeO2,2.5069000000000004
Rb2Mo3SeO12,2.5069000000000004
VCdBiO5,2.507
La3Si2S8I,2.507000000000001
LaTiAlPbO6,2.507200000000001
Mg3ZnO4,2.5074000000000005
Zr4CdO9,2.5075
NbCl4F,2.5076
SrLa7TiGa7O24,2.5077
BaNd2PtO5,2.5077000000000003
LiMnPO4,2.5078
Ba2LuMgSbO6,2.5078
Li5SbS3I2,2.5079
Li6SeN4,2.5079
KFe3As4(HO8)2,2.508
Lu2Ti2O7,2.5080000000000005
LiBiB2O5,2.5081
Rb2U(SiO3)4,2.5083
Os2Pt(CO)10,2.5084
ErTa5Ag2O15,2.5085
Na3NdTi2Nb2O12,2.5085
Nd2Th3O9,2.5085
CaSn3(P2O7)2,2.5087
Li4GeS4,2.5087
Na2LiTi3Al(PO4)6,2.5088
K2YAgI6,2.5089
RbGaO2,2.5089
Ba2Li3La3(MoO4)8,2.509
KNa2AlH6,2.509
Gd2Mo4O15,2.5091
Li2CrO2,2.5093
LiNbFeO4,2.5094
LiBi3(BrO2)2,2.5094000000000003
K2Be2NiH6F8,2.5095
Cs3BS3,2.5095
Na10Zr4Ti4Si9(SO16)3,2.5096
Li3VF5,2.5096
Li3Fe(PO4)2,2.5097
Na10Nb4Si11Ge4SO48,2.5099
Ba3TaFe3(SiO7)2,2.5099
SrV4O9,2.5099
GaSeCl,2.51
LaV2IO9,2.51
Sm2ScNbO7,2.51
Li3BiO3,2.5102
Mg2V2O7,2.5102
H2PbO2,2.5105
LiTiPCO7,2.5105
NdTiCdSbO7,2.5106
RbTaO3,2.5106
Li4Sn(BO3)2,2.5108
K2Cr2O7,2.5108
Na14Nb5Ga3(SiO4)12,2.511
KNdZr2O6,2.511
Li2VGa3O8,2.511
CrBi12Mo4PbO34,2.5112
AlCuCl4,2.5112000000000005
La2MgSe4,2.5113
Cs2RbIrF6,2.5113
Mg2MnWO6,2.5114
Mg5(SiN3)2,2.5114
B7H10,2.5117
Ba2HoMgSbO6,2.5118
Na21Mg8Ta4Si3(P5O24)3,2.5118
NdV2IO9,2.5118
SnICl,2.5118
KTi3NbO9,2.5119
Li8Fe2O7,2.5120000000000005
CaGeO3,2.5121
LaClO2,2.5121