formula,band_gap (MP)
Li4V3P8O29,0.8612
Mg2H4Ru,0.8613
MgCu2(SiO3)4,0.8613
Zn(InSe2)2,0.8613
Rb3NiF7,0.8613000000000001
Li2TiN2,0.8613999999999997
K2Na2MgNb2(OF5)2,0.8613999999999999
KNa7V8O20,0.8614000000000002
Ga6SnTe10,0.8614000000000006
Li3MnV(PO4)3,0.8614999999999999
KZnI3O2,0.8614999999999999
KHf2BiO6,0.8614999999999999
Ba(CO3)2,0.8614999999999999
MgTi3V5O16,0.8616999999999999
Li9Mn2Co5O16,0.8619000000000003
Cd(FeO2)2,0.8619000000000003
Sr3MgFe2S2O5,0.8619999999999997
Li4MnFe3O8,0.8620000000000005
KAcTe2,0.8620999999999999
Cs3Nb2Se11,0.8620999999999999
Sr2MgCrO4,0.8620999999999999
VZnO3,0.8621000000000003
Mg6VCrO8,0.8621999999999996
NdZnAsO,0.8621999999999996
Fe7O9,0.8621999999999999
Li5(FeO2)4,0.8622000000000001
CrSbO4,0.8623000000000003
YMgCrS4,0.8623999999999996
LiCoSiO4,0.8624
YbV4O8,0.8624999999999998
RhF3,0.8625999999999999
Li10Ti3Mn5O16,0.8626999999999998
VS2N3Cl2,0.8629999999999999
LiNi2(PO4)2,0.863
Dy2SnS3,0.863
Ca2Fe2O5,0.8630999999999998
Fe2BO4,0.8631000000000006
Li7V3P8O29,0.8631999999999997
Te2Mo,0.8632999999999997
Fe7(SiO6)2,0.8632999999999997
Li2U(WO5)2,0.8633
NiP4O11,0.8633000000000002
CsK2Sb,0.8633999999999997
Co(C4N3)2,0.8634
MgMn5FeO12,0.8634
TiV3O8,0.8634999999999997
LiCoP2O7,0.8634999999999999
LiCrP2O7,0.8635
KMo2(PO4)3,0.8635000000000002
Hf(Te4Cl3)2,0.8635000000000002
LiFe5O5F,0.8635999999999999
K3Nb2Se11,0.8635999999999999
Na2CrSiCO7,0.8636000000000001
Ba(InTe2)2,0.8637000000000001
Li7Mn5O12,0.8637999999999999
NaLaS2,0.8638000000000003
Na6MgV2(SO3)2,0.8639999999999999
CaZrSi6O17,0.8641
LiV4O5F7,0.8641
V2O3F,0.8641999999999999
LiV(PO4)2,0.8642000000000001
LiCa3Fe5Sn3O16,0.8642000000000003
Bi2(PbS2)3,0.8642000000000003
MgFe4(PO3)12,0.8642999999999996
Cs2TiI6,0.8643000000000001
MoPO5,0.8644000000000001
Na5(InTe3)2,0.8645
MgMn3V2O10,0.8645
Cs3Sm7Te12,0.8645999999999998
Na3Mn2P2(CO7)2,0.8645999999999999
La6Sm2Cr3Fe5O24,0.8646000000000003
AgClO2,0.8646999999999999
Cs2CuAsCl6,0.8647
TiH10N3F5,0.8648
Ba2HfS4,0.8648000000000002
Li4V3P8O29,0.8648999999999999
MgMnCo5O12,0.8649000000000002
La7SmCrFe7O24,0.8649000000000004
Sr(Ag3O2)2,0.8650000000000002
BP2Pb2O9,0.8651
LiNi(PO3)4,0.8651
Fe5P3O13,0.8651
Ca3(GeP2)2,0.8651999999999997
Ba2YUO6,0.8651999999999997
MgV3CoSn2(PO4)6,0.8653
LaCrSe2O,0.8653999999999993
FeCSO7,0.8654
Li3V3P8O29,0.8655
LiV(PO4)2,0.8655999999999999
Pr2InCuS5,0.8656999999999995
VOF2,0.8658
Li4Cr2Fe5O12,0.8658000000000001
UMn(MoO4)4,0.8658000000000001
Mg2Al3MoS8,0.8658000000000001
CoPSe,0.8658999999999999
VO2F,0.8659
Dy2Cu(BO2)8,0.8659000000000003
K2PtI6,0.8659999999999999
CoAu2(CN)4,0.866
Ho2CuTe2(SO7)2,0.8660000000000001
MgCr2(CoO4)2,0.8660000000000001
VO2F,0.8661
Ca2Mn3P3H6O17,0.8662000000000001
TlHg3Sb2Br3,0.8663999999999998
MgCo4(SbO6)2,0.8664000000000001
Mg(FeO2)2,0.8664000000000001
VO2F,0.8664000000000001
W5I16,0.8664999999999998
BaHfS3,0.8664999999999998
Ho2Cu(BO2)8,0.8664999999999998
Li4CrP2O9,0.8664999999999999
Li3CoSiO5,0.8665
Li3V4O7F5,0.8665
Li8(CoO2)5,0.8665999999999998
RbEr2Cu3Se5,0.8666
TeMo5O16,0.8666
Ba2MgCuSb2F14,0.8667
LiFeP2O7,0.8667000000000002
RhF6,0.8667000000000007
Na3V24O58,0.8667999999999998
Na2Nb4Zn4Si3(S3O16)3,0.8668999999999999
MgMn4(FeO4)2,0.8669000000000002
Ca8Ti3Mn5O20,0.8669999999999995
SrHfInSbO6,0.867
CuH2(CO2)2,0.867
LiVO2,0.8671000000000002
Li4Ni3Sn5O16,0.8671000000000006
K3Co(C3O7)2,0.8673
LiV2P4(HO8)2,0.8674
Na2Li2CoO4,0.8674
MgV3SnO8,0.8674
Li7Mn4CoO12,0.8675000000000002
LiV2(SiO4)2,0.8675999999999999
Li2V2(PO4)3,0.8676999999999999
Cd8Cu7P30,0.8677000000000001
LiV2P4(HO8)2,0.8677999999999999
ScCoTe,0.8677999999999999
Li3Co2(PO4)3,0.8677999999999999
Na3YN2,0.8678999999999999
Rb2Pd3Se4,0.8678999999999999
Li9Mn2Co5O16,0.8679000000000001
LaBiS2O,0.8679999999999994
Li4Ti3V5O16,0.8680000000000003
MgFe2(CoO3)4,0.8681000000000001
Ho5Cu(WO4)8,0.8681000000000001
LiV2P4(HO8)2,0.8681000000000001
TiSnPt,0.8681000000000001
Li5Mn5(SeO3)8,0.8681999999999999
Tl2(ReSe2)3,0.8681999999999999
Ba2La4CuPtO10,0.8681999999999999
Zn2Hg2OF6,0.8682
Li2VPO5,0.8682000000000003
Ba2DyUO6,0.8682999999999996
MgV4O7F5,0.8682999999999998
Cd3Ga3N5,0.8683000000000001
Mg6NiSnO8,0.8683000000000005
Li2V2(Si2O5)3,0.8683999999999994
NaP,0.8684000000000003
LiCoSiO4,0.8684999999999999
Cs5GeP3,0.8685
NaS,0.8685
Cs2AlAuCl6,0.8686
VO2F,0.8686
Bi2MoO6,0.8686000000000007
Ag4Hg5S5IBrCl2,0.8686999999999998
KNaCaCo5(SiO3)8,0.8687
Ge3PbSe4,0.8687
NaN3,0.8688
Th2AsNO,0.8689999999999998
CrCdInS4,0.8689999999999998
Ca2Mn3O8,0.8689999999999998
Au2O3,0.8689999999999998
NiPC5O2,0.869
Li2Cu(PO3)4,0.869
Na2PtSe2,0.8690000000000002
Mg30AlFeO32,0.8690999999999995
CaCr2O4,0.8691
LiV4OF11,0.8691
Li2Ti4Ni(PO5)4,0.8691
Tb2Mn2O7,0.8691
MgFe6Sb10(IO3)6,0.8691999999999993
MgZn2AgWO6,0.8692000000000002
NaTbMnWO6,0.8692000000000002
Ag2WS4,0.8692999999999997
Mn3Zn2O8,0.8693
Zn4Co5(TeO6)3,0.8693
La7SmCr2(FeO4)6,0.8693
Te2Mo2SeS,0.8693999999999997
Y3B3O7,0.8694999999999995
ZrCuH8(O2F3)2,0.8694999999999999
Li4MnCo2O7,0.8694999999999999
LiMnPO4F,0.8695000000000002
AlCu(WO4)2,0.8695000000000004
W2Br5,0.8696
CaZrGeO5,0.8696000000000002
MgFe6Sb10(IO3)6,0.8697999999999997
NaSr12Ni7O23,0.8698000000000001
LiV(SO4)3,0.8699
Li2V2(PO4)3,0.8700000000000001
Li2Mn3SnO8,0.8700999999999999
Li7Mn4CoO12,0.8702000000000001
CaMo2O5,0.8702000000000005
Li7Mn4CoO12,0.8702999999999999
Zr2N2O,0.8702999999999999
OsCl4O,0.8704
H3NCl,0.8704000000000001
Rb2FeCl5O,0.8704000000000001
K2BiAu,0.8705
Li3Mg2Fe19O32,0.8706999999999998
KMg3V3CuO12,0.8707
Ca2Nb10Si9(SO8)9,0.8707000000000001
Li7Mn4CoO12,0.8707000000000003
Cd(InSe2)2,0.8707999999999998
ScNb6Cl13O3,0.8708
CaVSi4O15,0.8708
LiCoSiO4,0.8709000000000002
ScCuS2,0.8709000000000007
TiNF,0.8709999999999996
Al4H12C15O31,0.871
Sb4S3N2,0.8710000000000004
Y2Mn2O7,0.8710999999999998
Ti7Cr12O48,0.8711000000000001
NaZr2CuF11,0.8712
LaCuSe2,0.8712
Nd2CuTe2(SO7)2,0.8712
Tl2SnSe3,0.8713000000000002
CdSn3F6,0.8714999999999997
LiCo(SiO3)2,0.8715000000000002
S2N(O2F)2,0.8715000000000002
Mg(MoO3)2,0.8715999999999999
Ag3BO3,0.8717000000000001
Ba(SbSe2)2,0.8717000000000001
SbRhS,0.8717999999999995
Ba2YMgMn2TlO7,0.8718000000000004
MgMn3V2O10,0.8719000000000001
SrMn2Si2(H2O5)2,0.8719999999999999
Na4Ga2Si3Ge2(SO8)3,0.8719999999999999
Li2V3SbO8,0.8720000000000003
Y6Fe(SiS7)2,0.8721000000000005
WN2,0.8721999999999999
Ag10Te4Br3,0.8722000000000003
RbRe3Br10,0.8723000000000001
Fe3BO5,0.8723999999999998
Li4V2C4SO16,0.8724000000000001
Li7Co5O12,0.8724000000000003
Ba2As2Se5,0.8725
Na6SN4,0.8725999999999998
TaTlO3,0.8725999999999998
Ba5(SnS4)2,0.8726000000000003
NbRhO4,0.8726000000000003
NbBr4,0.8728
Ca5(OsN3)2,0.8728000000000007
Eu2B5ClO9,0.8729000000000005
NdFe4(CuO4)3,0.8729999999999998
W(Br3N)2,0.873
LiBeSb,0.8731
LaTmS3,0.8731
Ni6OF11,0.8731000000000001
Ba2HoUO6,0.8731999999999998
Li3CuF6,0.8733
Li7Mn4CoO12,0.8733
Fe3(OF2)2,0.8733
LiV2P2HO9,0.8733999999999997
SbH7(Br2O)3,0.8734
KVN2,0.8734000000000002
BaSrNbWO6,0.8734000000000002
LiAuO2,0.8734999999999999
Cs3NiF7,0.8734999999999999
K2MgZn4P4(HO8)2,0.8736999999999999
MgCo5NiO12,0.8737000000000001
La7SmMnFe7O20,0.8737000000000004
K3Cu(NO3)5,0.8737999999999999
LiCo2OF5,0.8738
C3N4,0.873800000000001
KMnSn3O8,0.8738999999999999
ZrMo2Se8(Cl7O)2,0.8739
VOF2,0.8739
Fe12PbO19,0.8739000000000003
LiZn6Fe17O32,0.8739000000000003
BaRuO5,0.8739999999999999
LiCo(PO3)4,0.874
Ca5ZnN4,0.8740000000000001
Zn(SnO2)2,0.8740999999999994
K2S2NO6,0.8741
Na2CuH12(SO7)2,0.8741
Tb2ZrSe5,0.8741000000000003
FeAg2Sn3S8,0.8741000000000003
Gd3S3N,0.8742000000000001
AgBrO4,0.8743000000000001
NaCa3Ta(SO4)6,0.8743000000000001
Cs2RbCuF6,0.8744000000000001
Sr2LaMn2O7,0.8746
Li4Cr2C4SO16,0.8746999999999998
LiCoB2O5,0.8749
Ca(ZnP)2,0.875
CeMgSe3,0.875
Li3Zn2Fe19O32,0.875
HfMo2Se8(Cl7O)2,0.875
Li5V3P8O29,0.8751000000000001
MgWCl4O,0.8752
Cr3(CoO6)2,0.8752
Ca2LaMn2O7,0.8753000000000002
Li(Fe2O3)4,0.8753999999999995
BaCaMg14O16,0.8754
MgTiP3WO12,0.8754999999999997
LiV4O5F7,0.8755
MnCdF5,0.8755000000000001
Li2NbV3O8,0.8755000000000002
Tm2CuTe2(SO7)2,0.8755999999999999
Li6Mo2O7,0.8755999999999999
KCO3,0.8755999999999999
Li3IrN2,0.8756000000000002
Li11V8(PO4)12,0.8757000000000001
NdI3O10,0.8757000000000001
Re3Te8Cl3,0.8757000000000006
Na6GaP3,0.8758999999999997
Li2Mn3SnO8,0.8759000000000001
Li4Mn3O7,0.8759999999999999
Ba(AgS)2,0.8761000000000001
MgVZn2WO6,0.8761999999999999
Mg(Fe5O8)2,0.8762999999999996
MgTl2Pb16(Br9O4)2,0.8763999999999998
Li4CrCo3(PO4)4,0.8765000000000001
Se,0.8765000000000001
LiV3O8,0.8765999999999999
Fe2CoO4,0.8766000000000003
MgCo3BiO8,0.8766000000000003
MgVOF2,0.8767
K6Co2O7,0.8768
W2SeS3,0.8769
TaZn2WO6,0.8769999999999998
P7Pb,0.8769999999999998
Sb2P2O9,0.8770000000000002
FeS2,0.8770000000000007
Nb6InCl15,0.8771
Li2CuSb(PO4)2,0.8771999999999993
Li4Mn3O7,0.8771999999999998
Lu2Pb2O7,0.8772000000000002
Rb2Mo(CO4)2,0.8773
Sm2CuTe2(SO7)2,0.8773
Li3V3P8O29,0.8773000000000001
Li3V2P4(HO8)2,0.8773999999999997
Ba2CuAg3(SnS4)2,0.8773999999999997
LaCrCoO6,0.8775
Co2P2NO8,0.8775
CsAcTe2,0.8775000000000004
MnSnO3,0.8775999999999993
Li5Fe7O12,0.8775999999999997
Ba2Fe2O5,0.8776000000000002
Li7Mn5O12,0.8776999999999999
Li4MnCo2O7,0.8776999999999999
Mg30CoCO32,0.8777999999999997
Li9Mn7O16,0.8778999999999999
Zn(OF)2,0.8778999999999999
NaAgTe5O14,0.8778999999999999
Li2MnPCO7,0.8778999999999999
V2Ni(TeO5)2,0.8779999999999997
MgFe2(BiO3)2,0.8780999999999999
Li3V3P8O29,0.8782
BaSr3Mn4O12,0.8782000000000001
Li4Fe3TeO8,0.8782999999999994
SrCl2O,0.8784000000000001
MgFe3Ni2Sb(PO4)6,0.8784000000000001
Li3V3P8O29,0.8785000000000001
Er2CuTe2(SO7)2,0.8785000000000003
LiV2PO7,0.8785999999999998
LiFe5O8,0.8786999999999998
Dy2CuTe2(SO7)2,0.8786999999999998
K2Na2Sm2MgNb2O10,0.8786999999999998
Li2MnCoO4,0.8788
Li9Mn2Co5O16,0.8788
HoVO4,0.8788999999999998
K3Sn2S3BrO3,0.8788999999999998
YV3Se2ClO8,0.8788999999999998
Li2V3CoO8,0.879
Y2CuTe2(SO7)2,0.879
NaMg3Ta(SO4)6,0.879
Ba2ErUO6,0.8790000000000004
Na4SnTe4,0.8790999999999998
K2Mn(SnSe3)2,0.8791
LiMnVP2(HO5)2,0.8792
Li4MnCo2O7,0.8792999999999997
TlMo2(PO4)3,0.8793000000000002
Mn2OF2,0.8793000000000002
Sr2MnSbO6,0.8793000000000002
LaErS3,0.8793999999999995
Li3V3P8O29,0.8795
Li2Nb6NiO18,0.8795
HoMgV2O6,0.8795000000000002
K2ZrSi2O7,0.8795000000000002
LiMo2(PO4)3,0.8795000000000002
VOF,0.8796000000000004
Ca5BC4Cl3,0.8796999999999997
SrCrSnSbO6,0.8796999999999997
Na2CuH20C12(N2O3)6,0.8796999999999999
Li2Co(PO3)5,0.8796999999999999
Li3CoSiCO7,0.8796999999999999
KInBr3,0.8797
VCd2N3,0.8797000000000001
LiMo3P3O13,0.8797000000000001
V4O5F7,0.8797999999999999
Li9Co3P8O29,0.8798000000000001
Li2CeSm(MoO4)4,0.8798000000000004
V3Cr(PO4)6,0.8798999999999999
AlCu(PSe3)2,0.8799000000000001
YAl2BN4,0.8799999999999999
RbPO4,0.88
Li4CoO4,0.88
Ta4Se9I8,0.8800000000000001
K2O,0.8801
MgMn6Nb4O18,0.8801000000000001
Eu2B5BrO9,0.8801000000000005
K2Dy4Cu4S9,0.8801999999999999
KRb2CuF6,0.8802000000000001
Ga3NO3,0.8802999999999999
Li4CoO4,0.8803000000000001
SrSi(OF3)2,0.8803000000000001
Li2TiV3O8,0.8803999999999998
Al2ZnSe4,0.8803999999999998
Cs2Cr4Cu(HO4)4,0.8804
LiV2S2(O4F3)2,0.8804
BaEuSnWO6,0.8804999999999996
Li2Cr2Si2O7,0.8804999999999996
LiCoP2O7,0.8804999999999998
Re(SeCl6)2,0.8805
LiTa2CuO6,0.8805999999999994
Ca2Mo2O5,0.8805999999999994
K2Si3PbO10,0.8807
Ti3Mn2Cr3O16,0.8807999999999998
ZnBiO3,0.8807999999999998
Rb2ZrSi3O10,0.8808
Te4Mo3Se2,0.8808000000000002
MgMn2O4,0.8808000000000002
LiV2(SiO4)2,0.8808000000000002
Li2Mn2P4H3O16,0.8808999999999999
Si6C8N2O19,0.8808999999999999
Sr6Mg(W2O9)2,0.8809
Mg2V3O8,0.8810000000000002
SrCa3V4O12,0.8810000000000002
V3Cr2Sb3O16,0.8810999999999996
Li8Cr3TeO12,0.8811
SrCr2O10,0.8811
Li3V5P7O29,0.8812
KHfMnSbO6,0.8812000000000002
LiFe5O8,0.8812000000000002
MgBi8(PO4)8,0.8812000000000002
MgNb2(SCl)4,0.8812999999999995
MgSn3O7,0.8813000000000004
InFe29O40,0.8813999999999997
MnPO4,0.8814
V2CoO6,0.8815
MnZnBiO5,0.8815
K6MgCr2O8,0.8815
Sr2CaV2(Si2O7)2,0.8815
SrLaVFeO6,0.8815
K2NaMgVOF5,0.8815999999999997
MgV3CoO8,0.8815999999999999
GaAgSnSe4,0.8816000000000002
Li2TiFeO4,0.8816000000000002
MgGePd2,0.8817999999999997
V4(OF3)3,0.8817999999999999
Mo3W(SeS3)2,0.8818000000000001
Na9Mg11Nb(SO4)18,0.8818000000000001
CeSe2,0.8818999999999999
Li4MnCo2O7,0.8820000000000001
KTlO2,0.8820000000000001
Ba3In2O6,0.8820000000000001
Li4Ti4V4CoO18,0.8820000000000006
K4MgMn4O8,0.8820999999999999
LaTeCl,0.8821000000000003
NaNdC4O11,0.8822
TiGePt,0.8822000000000001
Rb(SnSe2)2,0.8822000000000001
MgVCr2Fe3(PO4)6,0.8822999999999999
CaTi3V5O16,0.8822999999999999
Ba2MnAl2CuF14,0.8823
BiO2,0.8823000000000001
Si(Ag4S3)2,0.8824000000000001
InAgTeSe,0.8824000000000001
Sc2CCl2,0.8824000000000001
Li3Co(BO3)2,0.8825000000000001
Rb2Pd3Se4,0.8825999999999998
Li7V5O12,0.8826
BaGdCuSe3,0.8826
Li7Mn4CoO12,0.8826999999999998
CrBiO4,0.8826999999999998
LiNb3Cl8,0.8827000000000003
V2Re2O11,0.8828
Ca2VWO6,0.8828999999999994
CeSe2,0.8828999999999998
Li3MnV(PO4)3,0.8828999999999998
K2HgCl4O,0.8828999999999999
Li24Mn5Cr7O36,0.883
K2CoH2(SO5)2,0.883
MnOF,0.8831
AuClO2,0.8831
MgV2(HgO3)2,0.8832
MgCoAsO5,0.8832
P,0.8832
Li9Mn2Co5O16,0.8832999999999998
VSiO4,0.8833000000000002
Mn2GeO4,0.8833000000000002
MgSnPt2,0.8834
In5CuS8,0.8834
MgV4O7F5,0.8835
RbV(CuS2)2,0.8835999999999999
MgVMoO5,0.8836999999999997
Cu7PS6,0.8837000000000002
Sr(InTe2)2,0.8837999999999999
BaP4PtO14,0.8839
GeCN2,0.8840000000000001
FeHO2,0.8840999999999999
Li5V3P8O29,0.8841
Co(Bi5O8)5,0.8841999999999999
Co(SiO3)2,0.8842000000000001
Li6Mn3CoO10,0.8842999999999996
Tb2CuTe2(SO7)2,0.8842999999999996
MoAsO6,0.8843
Cs2Ni3S4,0.8843000000000001
Li2VOF4,0.8844
NdMnFeBiO6,0.8844000000000003
LiV2OF5,0.8844999999999998
Li6Mn3Fe(PO4)6,0.8845999999999998
Li4Ti4V5O18,0.8845999999999998
MgMn4Zn2O8,0.8847
KZnH2Cl3,0.8847999999999998
Ba3(BiN2)2,0.8849
Mg30CdCoO32,0.8849999999999998
LiV5O7F,0.8849999999999998
KAuSe2,0.8850000000000002
Mn2V3Ni(PO4)6,0.8851
K4BeAs2,0.8851000000000001
Hf2SN2,0.8851000000000004
Rb4Mg(Se2O7)2,0.8853
Li4Cr3Sn3(TeO8)2,0.8853
ScIn3P4,0.8854999999999995
K6MoN4,0.8855
MgV2(SO5)2,0.8855
Mg(CoO2)4,0.8855
Cs6Dy21Te34Cl,0.8855999999999997
MgTiZn(BiO3)2,0.8857999999999997
WI3O,0.8858000000000001
MnP2O7,0.8859
Li6Mn2O5F2,0.8859000000000001
MnCo5(BO5)2,0.8859999999999997
ZnCo5O7,0.8860000000000001
CsH3AuN,0.8861
K2CuBiBr6,0.8862000000000001
Li7Mn2(CoO4)3,0.8862999999999999
CrWO3,0.8863000000000001
SrLa3Mn4O10,0.8863000000000003
Bi8(P2O9)3,0.8863999999999996
Al2H18SO15,0.8863999999999999
Ta3I7,0.8864000000000001
Li3Fe4WO8,0.8864000000000001
Rb2MgMo2P2(ClO5)2,0.8864000000000001
AlIn2N3,0.8864999999999998
SrGdCoO4,0.8864999999999998
Li9Mn7O16,0.8865000000000003
Si19Te8,0.8865999999999996
TaI2O,0.8866
Li3TiV3O8,0.8866
NaBeSb,0.8866
Li4Mn3O7,0.8866999999999998
Zn(BiO2)2,0.8867000000000003
Li3Co2(PO4)3,0.8867000000000003
Li7Mn2(CoO4)3,0.887
Li4MnCo2O7,0.8870999999999998
AlBi2Te2BrCl4,0.8872
Re3PbSe6,0.8872
V3NiO8,0.8872
Tm4CdSe7,0.8872
Ho2CdS4,0.8872999999999998
SrLi4N2,0.8873999999999999
Ba4SiSb2Se11,0.8874
Na4CoAuO5,0.8874
NaAu(Cl2O)2,0.8874
Hg7Cl2O3,0.8874
Li7Mn4CoO12,0.8874
Al2CrCl8,0.8876
Ba2Mg(CoO3)2,0.8877000000000002
K2SnOF6,0.8877000000000002
H22RuN7(ClO2)4,0.8877999999999999
Mn3BPO10,0.8877999999999999
LiAl2V4O8,0.8878000000000004
In2Te5,0.8878000000000004
Te2MoWSe2,0.8879000000000001
Mn4Bi3NO15,0.8880999999999997
Li2BiS3,0.8880999999999997
CaMoO4,0.8881000000000001
Li4Mn3CoO8,0.8881000000000001
Na4MgV4O10,0.8881999999999999
Zn3Si4(MoO7)2,0.8881999999999999
Sr2MgMnO4,0.8882999999999992
MgMn2(FeO2)4,0.8882999999999996
Li7Mn4CoO12,0.8882999999999996
Na6Mg(NiO3)2,0.8883000000000001
DyRhO3,0.8883000000000001
RbMgSbO3,0.8883999999999999
Li3Mn3(PO4)4,0.8884
Rb3MgNbO8,0.8884000000000001
Sr2GaW2O7,0.8884000000000003
K2MgZn2(PO3)6,0.8884999999999996
FeS4N4Cl3,0.8885000000000001
Li2Mn2Si2O9,0.8885999999999998
LiAgF2,0.8886000000000001
Li9Mn7O16,0.8886000000000003
In4(SnO4)3,0.8886000000000003
KGdHfTiO6,0.8886000000000003
Ba7Ga4P9,0.8887
MgZn2Cr2O8,0.8887
Na11(WO3)13,0.8887999999999994
MgFe8(OF)8,0.8887999999999998
MgMnVP2(HO5)2,0.8887999999999998
MgZn2(FeO2)4,0.8888000000000003
Mg2CoWO6,0.8888999999999996
Ba2NbRhO6,0.8889
Np2SO10,0.889
Rb2PdSe2,0.889
CrCoNF6,0.8890000000000002
V2GaO5,0.8891
Be3P2,0.8891
Li3V3P8O29,0.8892
ZnCr2O4,0.8893999999999997
MoSCl,0.8894000000000002
In4(SnO4)3,0.8894000000000002
KTiO2F,0.8895
Na3CuCSO7,0.8895
MnPO4,0.8895000000000001
Li7V8(PO4)12,0.8895999999999997
Ag2Hg3P4Br3,0.8896000000000002
Cs3Mn3V4O16,0.8896999999999999
MgCr4(PbO4)4,0.8896999999999999
Pb2OF2,0.8897999999999997
MgMnPO5,0.8897999999999997
Sr3P4,0.8898000000000001
NbO2F,0.89
CeSe2,0.8900000000000001
K2Na3SiP3,0.8900999999999999
Li4V3Co2Sn3O16,0.8900999999999999
Li2CoO3,0.8901
Li2TiCo2O5,0.8901999999999997
Na14Mn2O9,0.8901999999999999
SrLa3Mn4O10,0.8902000000000001
P2Os,0.8902999999999999
Li2Mn3SbO8,0.8902999999999999
Li2VCO5,0.8902999999999999
GaAgSnSe4,0.8903000000000001
HoV2O6,0.8904999999999998
Fe3(OF2)2,0.8904999999999998
AlCuGeSe4,0.8904999999999998
PuCoH24C4N6O13,0.8905000000000001
Li2CoO3,0.8906000000000001
MgCu2B2H8(ClO4)2,0.8907000000000003
K3Mo3Se14,0.8907000000000003
LiFe7(O3F5)2,0.8907999999999998
Yb2SnS5,0.8908000000000005
YCu3HgSe4,0.8908999999999998
Li2MnV(PO4)3,0.891
VCu3(SeS)2,0.891
SrTaNO2,0.891
MgV3CrO10,0.8911
K3BrO,0.8913
Li2V(OF)2,0.8913999999999997
SrMn2BiO6,0.8914
Al5WN7,0.8914
Li4V3P8O29,0.8914000000000001
Ca3V3(AsO4)4,0.8916
Hg4S(ICl2)2,0.8916
K14ZnGe16,0.8916
NbV2Fe3(PO4)6,0.8916000000000004
LiTi3V5O16,0.8916999999999997
Zn3Ge3(WO6)2,0.8916999999999997
Ba4ZrN4,0.8917000000000002
BaP8,0.8917000000000002
V2Ni(HO2)4,0.8917999999999999
Li9Co7O16,0.8918999999999997
Li3V3P8O29,0.892
Na3TiF8,0.8920000000000001
Na2Bi5AuO11,0.8920000000000003
Li2V3SnO8,0.8920999999999997
K2BaSnTe4,0.8921000000000001
AlCuSe2,0.8921999999999999
Pb(SeO3)2,0.8921999999999999
Na14Co2O9,0.8922999999999999
Na3(CoO2)5,0.8923000000000001
K2Se5,0.8923999999999999
MgSnO2,0.8924000000000003
Li9Fe23O32,0.8924000000000003
Mn8NO16,0.8924999999999998
CeSe2,0.8925999999999998
RbMo2(PO4)3,0.8925999999999998
LiV5O10,0.8925999999999998
LuMgCrS4,0.8926000000000003
Mg(WO2)2,0.8926999999999996
Li4Mn3CoO8,0.8926999999999996
Fe10O11F9,0.8926999999999998
W(BrO)2,0.8926999999999999
MgFe12(OF)12,0.8927
Re(TeCl6)2,0.8927
HfMg6BiO8,0.8927999999999994
MgVCl2O,0.8927999999999998
Li4Mn3CoO8,0.8927999999999998
Pb(CO3)2,0.8927999999999999
K2O,0.8928999999999999
Li4Ti3V2Cr3O16,0.8929999999999998
LiVSO4F3,0.893
CuH8C2(N2O3)2,0.8930999999999999
Li3V5O10,0.8931999999999998
LiCrPO4,0.8931999999999998
Si,0.8932000000000002
Li9Mn7O16,0.8933
Li7Cu(SiO4)2,0.8933999999999997
CaUO4,0.8934999999999995
Li5Mn(CoO4)2,0.8935
Co4(P2O7)3,0.8935000000000001
Li4V3P8O29,0.8935000000000001
CaV4(PO5)4,0.8935000000000002
Li17V16O32,0.8935000000000004
Sb2H4AuF16,0.8936000000000001
ErAgTe2,0.8936000000000002
Li3V5O12,0.8936000000000002
K3Sn2S3ClO3,0.8936000000000002
CsGd2Cu3Se5,0.8936999999999999
MgWF4,0.8936999999999999
Cd4As2Cl3,0.8937
ZrTl2S3,0.8937000000000008
MgAl4(CuO4)2,0.8937999999999997
La2Ta3(SeO4)2,0.8937999999999997
CrWO6,0.8938
V6O7F5,0.8938000000000001
Li5Mn3O8,0.8939000000000004
CrSbTeO6,0.8939000000000004
Li7V3P8O29,0.8939999999999999
Mo4P7O24,0.8939999999999999
Ca3AsN,0.8940000000000001
Sr(NO5)2,0.8941999999999999
Li4Ni3Sb(PO4)4,0.8942000000000005
Fe5(OF4)2,0.8942999999999999
Cs6Ho21Te34Cl,0.8943999999999996
CeSe2,0.8944000000000001
Li2MnVP2(O4F)2,0.8944999999999999
La2InCuS5,0.8944999999999999
Fe10O11F9,0.8945000000000001
LiV2CoO6,0.8946000000000001
MnPO4,0.8947
NO2,0.8947
Li9Mn2Co5O16,0.8947999999999996
Bi12PtCl12,0.8948
Li9Mn7O16,0.8948
PrMgV2O6,0.8948999999999998
MgSnO3,0.8948999999999998
Li4Mn2VNi3(PO4)6,0.8949999999999996
Nd2(BiO2)7,0.8950999999999993
Ba3NbAs3O,0.8951999999999998
LiCoO2,0.8952
CdRe2C4(N2O3)4,0.8952000000000001
Li24Ti7Cr5O36,0.8952999999999998
Fe4O3F5,0.8954999999999997
Li3V4(OF3)3,0.8955
Li4MnV3O8,0.8956
DyAgTe2,0.8957999999999995
V3(PO4)4,0.8958
Na2CoAuF6,0.9908
LiVCrP2(O4F)2,0.9908
TlIn5Se8,0.9908000000000006
NaCrS2,0.9908999999999994
Sm3InS6,0.9909
V2Ag6As2O13,0.9909
MoF5,0.9911
Na3MgZr3P5SO24,0.9912
K4Br2O,0.9912
ZrS2N,0.9912
In2Si(AgS3)2,0.9912
AgBiI4,0.9912
Cs2BiAuCl6,0.9914
Li32Ti3Cr13O48,0.9914
Ag3PS4,0.9914
LiMn2(CO3)4,0.9916
Ti3Mn3(SnO8)2,0.9916999999999998