formula,band_gap (MP)
BCl,3.3203
Li4TiO4,3.3205
Li8MnFe7(BO3)8,3.3205000000000005
HgAs2H2F14,3.3206
Li3Sb3(PO4)4,3.3206999999999995
Tl2WO4,3.3207
LiNiPO4,3.3207000000000004
LiSn2(PO4)3,3.3207000000000004
Pb(C4N3)2,3.3209
SbPC3S3N3Cl3O,3.3209
Ca2AlH10ClO8,3.3211
Sn2H12Cl6O7,3.3211000000000004
HgCN2O3,3.3212
Rb2Zr(IO3)6,3.3213
PH24W12C6N3O40,3.3213
B5Pb2BrO9,3.3213
NaMg2Zr2PS5O24,3.3214
Na7MgIn3(PO4)6,3.3214
Na2TaSi2GePO12,3.3214
LiNiPO4,3.3216
Cs2TeH6SeO10,3.3216
GdTaO4,3.3217000000000003
Na7CaGa3(PO4)6,3.3218
Nd2Mo(SeO5)2,3.3219
Na2CoP2O7,3.3221
Ho2Mo4O15,3.3221000000000003
H4CS(NO)3,3.3221000000000003
Na9CaTa5(SiO4)9,3.3222
LiNiPO4,3.3223
SrCaDySbO6,3.3225
LiFePH2O5,3.3225
SbOF,3.3227
H8AuC2S2N4Cl,3.3228
H11C4NO10,3.3229
Li6NiO4,3.3229
Na4ZrZn3P2(SO6)4,3.3229999999999995
Na2Zn2Si2O7,3.323
NaMn3P3(HO6)2,3.3231
PH9C2S(NO)4,3.3231
Na5Ta3AlSi5PO24,3.3231
TbOF,3.3232
ScTl3F6,3.3232
PH30W12C9N3O40,3.3232
Er2Si2PbO8,3.3232000000000004
LiNiPO4,3.3233
Li2Ni4P4O15,3.3233000000000006
Ti(SiO3)2,3.3233000000000006
Ca3Zr2O7,3.3234
KNaP6(PbO3)8,3.3234000000000004
NaCoPH10CO10,3.3235
Te(S2O7)2,3.3237
Na4TiO4,3.3237
Na3Hf2SiSn2P5O24,3.3237000000000005
Pr2TiO5,3.3239
RbTm(WO4)2,3.324
CoBP2HPbO9,3.324
Tl2SeO4,3.3241
Na14Ta5Ga3(SiO4)12,3.3241000000000005
Na6TeMo6(H22O23)2,3.3242
Rb2YInCl6,3.3242000000000003
Na14Hf3Mg5Si6(SO8)6,3.3242000000000003
LiFeF3,3.3243
Sr2GdSbO6,3.3244
InPH2O5,3.3244
Na5H4BrO4,3.3245
Na4CaZr2TiSi4(O8F)2,3.3247
LiSn2P4H3O16,3.3251000000000004
LiFeBO3,3.3252
K3H(SeO4)2,3.3252
Mg(IO3)2,3.3254
NaMgGa(SO4)3,3.3255
Sr2TlI5,3.3255
KNaCa3Mg10(SiO3)16,3.3256
MnH8C4(NO3)2,3.3256
KCaH3,3.3257000000000003
B10H16CSe,3.3257000000000003
Dy2Ge2O7,3.3259
Na5LiMn2P2(CO7)2,3.3259
LiFe(PO3)3,3.326
Lu3TaO7,3.3260000000000005
Ho3Ga5O12,3.3260999999999994
Pb2CO4,3.3262
Na15Mg2Ta10Si15(PO24)3,3.3262
LiMn2F5,3.3262
S,3.3265
Cs2LaBr5,3.3266
Ba2Ti2Si2O9F2,3.3266
MgAl2O4,3.3267000000000007
Sm2ScTaO7,3.3268
GaCoPH18C9NCl2O3,3.327
FeH10N2OF5,3.3271
SbSNF6,3.3272
Sr5Cr3F19,3.3272000000000004
C,3.3272999999999997
C10S(Cl4O)3,3.3273
Na4CaHfSi2SO12,3.3274
Na7ZnIn3(PO4)6,3.3275
CaTiO3,3.3276000000000003
K2LaH4N5O17,3.3276000000000003
Tl3GaF6,3.3277
BaSrHfZrO6,3.3278
Zr4H22N4O3F20,3.3278
PH9AuC3ClO3,3.3279
Ba3SrCa2(WO6)2,3.3280000000000003
H16S(N3O5)2,3.3281
LiMnPO4,3.3281000000000005
LiAlGeO4,3.3281000000000005
Li9Ga3P8O29,3.3283000000000005
Na8Hf2In2Si5SO24,3.3284
LiFeF4,3.3284
H8AuC2S2N4ClO4,3.3284
UF6,3.3284
Li2CoH12(SO7)2,3.3284
SrCaZnWO6,3.3286
Rb2CoB12(H2O3)10,3.3287
LiMnF3,3.3288
TbH(CO2)3,3.3288
LiFePO4,3.329
Rb2SiO3,3.3292
Li2FeF4,3.3292
PbCO3,3.3293
LiFe2F5,3.3294
Cs2RbYI6,3.3296
N2O,3.3297
AsP3H18C6(SO)6,3.3298
Na3Li3Mn2P2(CO7)2,3.3298999999999994
Tl2Ni4P4O15,3.3299
CoP4H16(NO8)2,3.3299000000000003
K3Pr2(NO3)9,3.33
Tl(CO)2,3.3303
LiSiBiO4,3.3303
Tb2Mo4O15,3.3306
Cs2CO3,3.3306
PrTl(WO4)2,3.3307
Na5LiMn2P2(CO7)2,3.3307
Na6Hf4Al4Si5S7O48,3.3307
Na5H7(Se2O9)2,3.3308
PbClF,3.3309
Na10Hf5Mg3Si6(SO8)6,3.3313
LiSiBiO4,3.3313
BaTb2(MoO4)4,3.3313
SrNdGaO4,3.3314000000000004
Na2CaSiO4,3.3315
Cs2KGaCl6,3.3316
B10H13,3.3318000000000003
Na15Ca10Ta2P9(SO8)9,3.3321
LiFePH2O5,3.3321
BaNiP2O7,3.3322000000000003
Na5TaIn3SiP5O24,3.3322000000000003
Sb2(SO4)3,3.3325000000000005
Li7Fe7P6(O8F)3,3.3326
Ba2Zn(BO3)2,3.3328
Ge2C2(SF2)3,3.3328
CrH15S2O15,3.3328
BaSrI4,3.3328999999999995
La2WO6,3.3329000000000004
Na14Y4Ta4Si11SO48,3.3329000000000004
Ca2BN2Cl,3.333
FeSn2(CN)6,3.333
ZnH4(NO4)2,3.333
ZnH8(NO5)2,3.3331
MgSi4(MoO6)2,3.3331
KMn4(PO4)3,3.3331000000000004
Li2CoSi3O8,3.3332
Bi6P4PbO20,3.3332
Zn3(PO4)2,3.3332
CsEr(WO4)2,3.3334
H3NO4,3.3335
Li3Bi3(PO4)4,3.333600000000001
KSeO2F,3.3338
NaTa2Ga2P5SO24,3.3338
HoTaTiO6,3.334
Rb2Y(NO3)5,3.3341
Rb3FeF6,3.3341000000000003
RbHO,3.3341000000000003
BaLa2WO7,3.3342
Y(IO3)3,3.3342000000000005
Mo3H12C4NO10,3.3344
KLa(MoO4)2,3.3346
Na4ZrSi3SnO12,3.3348000000000004
Cs2YAgBr6,3.335
BaNaY(BO3)2,3.335
Ba2As2O7,3.335
LiNi3P3O11,3.335
Ba5B3CNO9,3.3351
SnPbF4,3.3352
LiMoP2O7,3.3352
Na3Al3Si3AgBrO12,3.3353
NaNdO2,3.3353
Ca(GaO2)2,3.3353999999999995
NdY3(Mo4O15)2,3.3356
Na6Mg7Zr(SO4)12,3.3357
B10H13Br,3.3357
TlPHO3,3.3362
KNd(MoO4)2,3.3362000000000003
CoP4(H5O8)2,3.3363
CaCd(CO3)2,3.3363
CaAsO5,3.3364000000000003
CaMg14CdO16,3.336499999999999
LaZrTa3O11,3.3365
SrLaGaO4,3.3365
Mn4Be3Si3SO12,3.3366
Ca2As2O7,3.3366
Ca4Al6MoO16,3.3371000000000004
KLiSm2(MoO4)4,3.3372999999999995
Cs2TiO3,3.3373
Ba3BPO7,3.3373
SnH10Cl4O5,3.3374
CsPbF3,3.3374
PBr3,3.3374
Li2Fe(Si2O5)2,3.3375
Li2Ni3(P2O7)2,3.3375000000000004
LiSiBiO4,3.3375000000000004
RbBeH3,3.3379
CsLa(MoO4)2,3.3379000000000003
BaCaTbSbO6,3.338
H7NO6,3.3381
KAu(NO3)4,3.3381
Rb2TlBiF6,3.3382
K3Bi2(AsO4)3,3.3384
Nd5Te2Cl3O10,3.3387
TmTaTiO6,3.3387999999999995
CaH4Se2O9,3.3388
Rb3TeH6(ClO2)3,3.3389
MnSO3,3.339
Zn2CoP2(H2O3)4,3.339
KTa(PO4)2,3.3393
C,3.3394999999999992
Ge3(SbO3)4,3.3397
Cd7Te7Cl8O17,3.3398
Ba2YBr7,3.3399
NdPb8F19,3.3399999999999994
Bi(C2N3)3,3.34
PHPb2N2O9,3.3400000000000003
BaTiOF4,3.3400000000000003
CaTm2O4,3.3401
Cs2B12H4F9,3.3402000000000003
Na3Zr2SiGe2P5O24,3.3403
Ba2MgO3,3.3403000000000005
Rb3MoF6,3.3404
Y4H9NO13,3.3405
KGePO5,3.3406
ZnH16C6(N3O5)2,3.3406
Na4TaIn(SiO4)3,3.3407
Sm2As4O9,3.3407
Ba2NiWO6,3.3409
LiFePO4,3.3409000000000004
KHo(WO4)2,3.341
LiFe(Si2O5)2,3.3411
SrLu2O4,3.3411
LiMnPO4,3.3411
Rb2Ni2(MoO4)3,3.3412
Rb3YV2O8,3.3415
CsRbC2,3.3416
K3P6S6N7,3.3416
Nd2Th8O19,3.341600000000001
Sr2NdSbO6,3.341600000000001
Sr2CaI6,3.3417000000000003
LiNi3P3O11,3.3418999999999994
Mg2BBrN2,3.3419
La3TiCl5O4,3.342
Li2MnPO4F,3.342
SbPO4,3.342
Nd2As4O9,3.3420999999999994
Na7Ta2Al2Si5PO24,3.3422
MgAg(PO3)3,3.3422
Na2VPO6,3.3423000000000003
Mg2BiAsO6,3.3424
CsNbO3,3.3425
Rb2CaV2O7,3.3426
BaNaIn2(PO4)3,3.3426
Sr4Al6SO12,3.3427
LiMnPO4,3.3429
La2WO6,3.3429999999999995
Li5Fe3F14,3.3431
Cd(BO2)2,3.3431
KVTeO5,3.3433
SrMg14CoO16,3.3433
Na14Zr4Al4Si9(SO16)3,3.3433999999999995
KCa2Mg2V3O12,3.3434
KRbMnF6,3.3435
LiMnF3,3.3435
FeTe(PO4)2,3.3437
H9C3S2BrN2,3.3437
KPr(MoO4)2,3.3437999999999994
CdH12C4I2(NO)4,3.3439
NaTaSn3(PO4)6,3.3440000000000003
Nd2NCl3,3.3441
Li3P2WO9,3.3444000000000003
BaCaGdSbO6,3.3444000000000003
SrPr2O4,3.3444000000000003
NaNiPO4,3.3445
Nd(IO3)3,3.3445000000000005
LiSnPO4,3.3446
Na10TaIn7(PO4)12,3.3447000000000005
Ca2Si5N8,3.344899999999999
RbMg30CrO32,3.3449
NaZrInSi(SO6)2,3.3449
Rb3Nd2(NO3)9,3.3452
NaLaScSbO6,3.3453
Na4YTa(SiO4)3,3.3454
ScBrO,3.3454
MnPH5CO4,3.3454
Ca5Ge3O11,3.3456
H4C5O2,3.3456
LiVF6,3.3456
BaSrI4,3.3457
NaCuH28CS6(N2O7)2,3.3458
RbSn2(PO4)3,3.3458
Sr5Ta4O15,3.3459000000000003
ErGeBiO5,3.3459000000000003
Na3Sr4Cr5F26,3.3459000000000003
LiIn(WO4)2,3.346
Na3MgGaP2SO12,3.3461
Na4MgZnSi(SO6)2,3.3462
LiSbP2O7,3.3462
K2MnF6,3.3462
Rb2GdGa(SiO3)4,3.3463
NaCaAsO4,3.3464
NaTaSiSn(PO6)2,3.3464000000000005
ThTe2MoO9,3.3465
Cs2YAgF6,3.3465000000000003
Al(IO3)3,3.3466
SrH6(CO3)2,3.3466
Na10Ca4Hf4Si5S7O48,3.3466000000000005
Li2SiNiO4,3.3467
SiH17S3N5,3.3467
PrH12(NO5)3,3.3467
CdIClO3,3.3467
Rb3LuV2O8,3.347
SiP4H28(C5Cl2)2,3.3471
SrN6,3.3471
BClF6,3.3471
MnH2SO5,3.3472
Sn(PO3)4,3.3472
InH10N2Cl5O,3.3473
Li2FeF4,3.3475
CsMnGa2P3(H2O7)2,3.3475
TeAsHO5,3.3476
Li2SnN2,3.3476
Gd2P4O13,3.3476
H6AuC3NO,3.3477
GaBr2,3.3479
LiH3C2O5,3.3479
Zr2H12(N2O7)5,3.348
Mg2H6Os,3.3481
SnH16(ClO2)4,3.3482000000000003
LiBiB2O5,3.3483
RbTa(PO4)2,3.3485
Cs2CdBr4,3.3485
Y4Ga2O9,3.3485000000000005
LaH6C2SNO9,3.3487
Ba3Ta2ZnO9,3.3488
AlB6H6(CCl3)2,3.3489
NaCa3AlFe3(SiO3)8,3.3489000000000004
H19C6S2(NO2)5,3.3494
SiH8(CI)4,3.3496
Al3GaN4,3.349899999999999
Mg30FeNiO32,3.349899999999999
Ba3Y2Br12,3.3499
BaSrI4,3.3499000000000003
LiMnPO4,3.35
Li2Fe(WO4)2,3.35
LiVZnO4,3.35
La2Te4O11,3.3500999999999994
InGa(SO4)3,3.3502
Sr(H8O5)2,3.3502
Na3ErV2O8,3.3505
Ba2SrWO6,3.3505000000000003
Sb6O5F8,3.3506
CaFeP2O7,3.3507
YCo(BO2)5,3.3508
H8S2N2O5,3.351
LiBH2C4O9,3.351
Li2V2(SO4)3,3.3511
LiGd(WO4)2,3.3513
Tm2GeO5,3.3514
CsGaBr4,3.3514
RbMg14CO16,3.3515
Li2MnPO4F,3.3516
AlP3NO10,3.3516
Na2CO3,3.3516
TlBiF4,3.3516
Na4Ni7(PO4)6,3.3517
LiMnPO4,3.3517
P2Pb3O8,3.3518
BiPPbO5,3.3519000000000005
Li7NbO6,3.352
H4C2SN4,3.3520000000000003
BaFeF4,3.3521
CsRb2AlBr6,3.3521
KCN3O2,3.3521
Na5Ta3GaSi5PO24,3.3522000000000003
NaZnMoHO5,3.3523
LiBiCSO7,3.3523
LuTaTiO6,3.3524
NaNi4H9(CO5)3,3.3525
K2Mo3O10,3.3529
Y3Ga5O12,3.3529000000000004
K3MoF6,3.353
LiNi2(PO3)5,3.3530999999999995
Ca2Ta2O7,3.3532
Ca2ZnAs2(H2O5)2,3.3532
Li2SiNiO4,3.3533000000000004
Co4Pb(CO)16,3.3534
CaH16C4(NO)10,3.3534
KTb(WO4)2,3.3535000000000004
BiOF,3.3538
Na7Ta2Ga2Si5PO24,3.3538
Tb2WO6,3.3538
KCdF3,3.3539
Ho2(MoO4)3,3.3539
Na2H10SO5,3.3539
SbOF,3.354
Si2BAsH29C9N,3.354
Rb3AlBr6,3.3543000000000003
ZnFeP2O7,3.3544
LiFePO4,3.3545
MgWF5,3.3545
MgNiP2O7,3.3545
Li2Mn7(P2O7)4,3.529
Rb2TeH6SeO10,3.529
MgP4(Cl5O3)2,3.5291
Li5La3Nb2O12,3.5291
ZrB2O5,3.5293
Li5Mn4P4O16F,3.5293
LiMnF3,3.5293
Na2AlSn(PO4)3,3.5294
MgTiO3,3.5295
Na3Mg3Ga(SO4)6,3.5297
CsLu(MoO4)2,3.5298
NaHf3Ta(PO4)6,3.5298
CaSiO3,3.5299
Ca2Si5N8,3.53
La(C2N3)3,3.5301
Ca4MgZnAs4(H2O5)4,3.5302
SrCdB2O5,3.5306
H3CS,3.5306
MnH8C3(NO3)2,3.5307
Zn3(AsO3)2,3.5307
PrH(SeO3)2,3.5309
ThH6(NO5)2,3.5309
Sc2(MoO4)3,3.5309
SiAg2(S2O7)3,3.5310999999999995
Na3Li3Mn2P2(CO7)2,3.5313
Na6La2Al2Si3(SO8)3,3.5313
Li4Ni(PO4)2,3.5314
H3C6SeO3F5,3.5314
P2Pb3O8,3.5316
Pr3W(ClO2)3,3.5317
Na2Si2S5,3.5318
BaH(BrO3)2,3.5321
NaHfGaSi(SO6)2,3.5321
LiFePO4,3.5322000000000005
Sr2ZnWO6,3.5324000000000004
Si(H3C)2,3.5325
LiSb(PO3)4,3.5328000000000004
Zr(SO4)2,3.5328000000000004
BaSrSi4(NO)4,3.5329000000000006
LiPrO2,3.5331999999999995
NaAl3Si3O11,3.5333
KDy(SeO4)2,3.5338
NaB(CO2)4,3.5338
H6NO2F,3.5339
BaSm2Sc2O7,3.5340000000000003
Ba3SiO5,3.5341
Na4LaYSi2SO12,3.5341000000000005
SmTl(MoO4)2,3.5344
Mg2SiO4,3.5344
Na3InGa(PO4)3,3.5346
K2HBrO,3.5348
BaSrYSbO6,3.5348
Cs2TeO3,3.5352
RbFe3P3(O4F3)2,3.5354
P,3.5354
TmTaO4,3.5355
SiC4(SN)4,3.5356
H8C3SN2,3.5357
Cs2ErAgCl6,3.5361
YB3H18C2S,3.5362
Zr3ZnP2(SO6)4,3.5363999999999995
KSm(WO4)2,3.5365
Te(CF2)4,3.5365
Rb2Cd3H10S4O21,3.5367
Na5H7(Se2O9)2,3.5368000000000004
NaLi5Mn2P2(CO7)2,3.5369
Tb2WO6,3.5371999999999995
BaYBr5,3.5372
Cs2NaAsO4,3.5373
Al2(MoO4)3,3.5374
Si3Ge2(H3C)11,3.5375
Na4ScTa(SiO4)3,3.5375
CaBi6(PO5)4,3.5376000000000003
CaH2C2O5,3.5377
Ba2YSbO6,3.5377
LiMnPO4,3.538
Sr2GeO4,3.5381
BaSrLa4Be2O10,3.538100000000001
Ca2Ga2Si(HO4)2,3.5382
LaAg(PO3)4,3.5382
Si5H6C4(NCl5)2,3.5385
Rb2ZrO3,3.5386
Na3Ta2Si3Sn2(PO8)3,3.5386
Zn3(PO4)2,3.5387000000000004
La3TaO7,3.5388
Er3GaO6,3.539
LiMnPO4,3.5393
Be(B3H8)2,3.5394
BaHfO3,3.5394
Er3Al3Cr2O12,3.5394999999999994
Ba2MgFe2B2(P2O9)2,3.5396
CdH4NCl3,3.5397
Al4Zn3Cr2O12,3.5397000000000003
Y4Ga2O9,3.54
K2Ni2(SO4)3,3.5401
Y3SOF5,3.5401
MgSb2P2(HO5)2,3.5403
LiAl(CN2)2,3.5404
K2ScInF6,3.5404000000000004
Sr(H8O5)2,3.5407
Na3HfInSi2SO12,3.5407
PAuClF3,3.5407
LaH40C13N9O19,3.5408
Na4TaAl(SiO4)3,3.5408
CsHo(MoO4)2,3.5409
P3Pb5ClO12,3.5411
RbTaO3,3.5412
La7Ta3(W2O15)2,3.5412000000000003
LiFePO4,3.5414
Lu2GeO5,3.5415
HoAsO4,3.5415
Bi2S2O9,3.5416
Na5LiFe2P2(CO7)2,3.5416
NaAlI4,3.5416
Sr2Fe2H2OF10,3.5417
NaLaZn(SO4)3,3.5418
Na10Hf4Mg4Si5S7O48,3.5419
KNaTiO3,3.542
Sr3TaHO6,3.5421
LiSb(PO3)4,3.5421
Mg2Mn(PO4)2,3.5421
NaLi2MnPCO7,3.5422
BaIBr,3.5423
LiMnF3,3.5423
Li3GaSiO5,3.5424
Sr3(AsO4)2,3.5424
CdH6(NCl)2,3.5424
K3Na(SeO4)2,3.5425
Na2Ni2(B4O7)3,3.5425000000000004
KRb2InCl6,3.5425000000000004
BaYBr5,3.5426
RbScAs2O7,3.5429
BiH14C4N8Cl5O2,3.5429
AlPO4,3.543
P4SO6,3.543
Sr2CdWO6,3.543
Mg6MnFeO8,3.543100000000001
BaPr2Sc2O7,3.5432999999999995
NaLi2MnPCO7,3.5433
BaSrPrSbO6,3.5434
In(C2N3)3,3.5434
TiH12N3F7,3.5435
Na2Ca4ZrNbSi4O17F,3.5435000000000003
BaBAsO5,3.5436
Ba(IO3)2,3.5436
CaTa4O11,3.5438
SrCaLaSbO6,3.5438
BaTlVO4,3.5439
Li3Bi2(PO4)3,3.5439
Na10Ta7Ga(SiO4)12,3.5439000000000003
Sr10P6SO24,3.544
Rb2ZrO3,3.5441
Sr4Al6WO16,3.5441000000000003
Ba3Y2Br12,3.5444
LiFePO4,3.5447
Sr2TmTaO6,3.5449
Ca2MgFe(SiO3)4,3.5451
P2SO3,3.5453
Na3CaLaSi(SO6)2,3.5454000000000003
CsK2AsF6,3.5457
NaLi5Mn2P2(CO7)2,3.5457
Cs2Li2GeO4,3.5457
LiH2N,3.5461
Ba2ScO3F,3.5461
Nd3TiCl5O4,3.5463
CsGa(SeO3)2,3.5463
CsVOF4,3.5464
Mn3Ga4P6(H2O5)6,3.5464
Sm2BeGa2O7,3.5466
Zn(AsO2)2,3.5466999999999995
Na2CaPb3(CO3)5,3.5468
Na5LiFe2P2(CO7)2,3.5469
LiMnPO4,3.547
VOF3,3.547
Li3Sb2(PO4)3,3.547
KNdO2,3.5472
ZnNiP2O7,3.5472
Ba(H8O5)2,3.5473
LiNi(PO3)3,3.5473
BaSrI4,3.5474
LiHS,3.5474
Nd2H6Se7O20,3.5475000000000003
P4SeO7,3.5476
Li3Dy3(TeO6)2,3.5476999999999994
Mn3Al2(SiO4)3,3.5477
Ca2HfSnO6,3.5477000000000003
Ni2BiB(PO5)2,3.5479
ZnSnP2O7,3.5479000000000003
LiCr(PO3)4,3.548
SrLaTl(AsO4)2,3.5481
Na4ScInSi(PO6)2,3.5483
Mo(PO4)2,3.5485
Ca8Mg5Fe2(SiO3)16,3.5485999999999995
Zn2P2O7,3.5487
KNb(BO3)2,3.5488
LiNi2(PO3)5,3.5491
ScAsO4,3.5491
Na4MgZrSi2SO12,3.5494000000000003
Si2BH18C31SO3F23,3.5495
KLu(MoO4)2,3.5495
BaSrDySbO6,3.5497
H2Pb4C(Cl3O2)2,3.55
Na3AlZnSi(SO6)2,3.5500000000000003
KAl3Fe2Si2(HO6)2,3.5502
Ba2YBr7,3.5502
Li2Fe(WO4)2,3.5503
TmAsO4,3.5505
Sr2CaI6,3.5508
NaMg3Al(MoO4)5,3.551
LiFePO4,3.551
Ba2CaI6,3.551
Na3LaMgSi(SO6)2,3.551
Na4Y2Mg2SiS5O24,3.5514
Na4MgIn(PO4)3,3.5514
Na4LaZn(PO4)3,3.5515000000000003
BaMg2V2O8,3.5516
CoPH4ClO3,3.5517
NaLi5Mn2P2(CO7)2,3.5518
Pr2O3,3.5518000000000005
BaGeO3,3.5519
PbClF,3.5519
Mg2PN3,3.5519
BaAl2Si3(NO)4,3.5521000000000003
Li2SbP3O10,3.5521000000000003
Rb2LiAsO4,3.5526
CsRb2InCl6,3.5527
BaBiBO4,3.5528000000000004
NaLi2NiPCO7,3.5529
Ba2Zr7O16,3.5530000000000004
Ba6Ho2Ga4O15,3.5531
SbOF,3.5531000000000006
Na5LiNi2P2(CO7)2,3.5531999999999995
Na10La8Si5S7O48,3.5532
SrSn(PO4)2,3.5533
TmAlO3,3.5534000000000003
SrCa2I6,3.5536000000000003
K2NdH4N5O17,3.5537
Ba2H14C4O15,3.5538
Rb2Na2SiO4,3.5539
As3HO6,3.5542
La2Ge2O7,3.5542
K5HfIn(MoO4)6,3.5543
NaFe2P2HO8,3.5544999999999995
Mg14CdSnO16,3.5546000000000006
Ba2YSbO6,3.5546999999999995
Ta2PbO6,3.5547
NiH4SeO5,3.5548
TaAgF6,3.555
SrCaI4,3.5551
CdH12C2S2(N3Cl2)2,3.5551000000000004
SiH12C6(NO2)4,3.5551000000000004
KNi4(PO4)3,3.5552
Na6CaHf7Si6(SO8)6,3.5554
LaH16C2N11O17,3.5554
Cs5Mo8P(H3O16)2,3.5554
LiFeF4,3.5555
LiMnPO4,3.5556000000000005
NaZrGaP2SO12,3.5557
MgCr(Si2O5)2,3.5557000000000003
Ge(TeO3)2,3.5558
TlPO3,3.5559000000000003
Li3VF6,3.556
BaCrF5,3.5561000000000003
RbCdCl3,3.5562
YZrP(SO6)2,3.5563
LiSi2BiO6,3.5567
Sn2ClF3,3.5567
NaLi2MnPCO7,3.5568
Sr2GdTaO6,3.5570000000000004
K2RbGaCl6,3.5572
HC,3.5572000000000004
Na7ZnGa3(PO4)6,3.5573
LuWClO4,3.5573
NaLi2MnPCO7,3.5574000000000003
RbHO,3.5577
K3GePCO7,3.5577
Ca2ZrSnO6,3.5577
SrGeO3,3.5578000000000003
CeTl2(PO3)5,3.5579
La2WO6,3.5579
TbH7C4O11,3.5579
Li4Al3Ge3IO12,3.558
SrGe4O9,3.5581000000000005
RbIn(MoO4)2,3.5583
LiMnF3,3.5585
S3N3Cl3O2,3.5585
Li2Fe2Si2O7,3.5586
BaCaZr2O6,3.5587
Si(H3C)2,3.5587
KSO4,3.559
Ca2Ga2SiO7,3.5592
Sr(H8O5)2,3.5593
KMg6BO7,3.5595000000000008
MgFe(SiO3)2,3.5596
CsMg14GaO16,3.5597000000000003
Ba2SmSbO6,3.5598
P3N5,3.56
NaCdF3,3.5602
K2BiMoPO8,3.5602
Al2Zn2S5,3.5602
Na3LiTi2Si4(HO4)4,3.5603
ErAlO3,3.5604
ZnF2,3.5604
Na4LaAlSi2SO12,3.5607
Li2NiP2O7,3.5607
BaDy2O4,3.5607
Al2Si3(NiO4)3,3.5607999999999995
KTm(MoO4)2,3.5609
ReSb(OF4)2,3.561
NaZr3Ta(PO4)6,3.5611
HfZrO4,3.5612
NaSc(GeO3)2,3.5612000000000004
Li3Fe3OF7,3.5612000000000004
Na14Hf6Mg2Si9(SO16)3,3.5616000000000003
MoP3Pb2O11,3.5617
BeSiN2,3.5618
Li3Mn(Si2O5)3,3.5618000000000003
Na4TaAl3(PO4)6,3.5619
NaC4N3,3.5619
Na5LiFe2P2(CO7)2,3.5619000000000005
Rb2ZrCl6,3.5620000000000003
C12BrF9,3.5622
Li2Fe(Si2O5)2,3.5622000000000007
Dy2Ge2O7,3.5623
LaBMoO6,3.5623
NaMg3Si3HO10,3.5623
CsTm(MoO4)2,3.5623000000000005
Sr4Al6MoO16,3.5625
C6BrF4,3.5625
W5(O2F11)2,3.5626
SrCa2I6,3.5626
Li2Mn(CO3)2,3.5626
SrCaNi(PO4)2,3.5626
CaThNb2O8,3.5626
AlInBr4,3.5627
Li3Bi2(PO4)3,3.5627000000000004
Li2Fe5(PO4)4,3.5628
K2MgMn2P6(HO10)2,3.5628
Ca2GeO4,3.5628
NaMg14TiO16,3.5628
AsPHBr3OF6,3.5629
PbWO4,3.563
CsIn3H6(Se3O10)2,3.563
ZrGaP(SO6)2,3.5631
B11H2CCl11,3.5631
SnSb2As2F18,3.5633
MgH12SO9,3.563400000000001
TeC8(OF3)4,3.5635
PC18F17,3.5637
Sn(PO3)2,3.5638
Na4Ga3Ge3B(HO3)4,3.5638
BaSrMg30O32,3.5639
ZnCO3,3.5639
Ba7GeB3BrO13,3.5639000000000003
CaH4NClO5,3.5639000000000003
Sr(H8O5)2,3.5641
C5N4O3,3.5641
LiFe3SiPO8,3.5642000000000005
Ho3GaO6,3.5644
BaCaI4,3.5645
NaMgAlH18(C2O7)3,3.5646
Na3InGa(PO4)3,3.5648
NaGa2P(SO6)2,3.565
SnCl4,3.565
Na5LiNi2P2(CO7)2,3.5650000000000004
Na3YIn(PO4)3,3.5651
Mg3H4O5,3.5652
Ba3Hf2O7,3.5653
Th(Se2O5)2,3.5655
Pr3TiCl5O4,3.5656
Ba3Bi2(PO4)4,3.5656
LiSc(WO4)2,3.5658
H6Os5Pt(CO)16,3.566
CrHC7NO5F2,3.566
Sr2GeO4,3.566
Li4Mn3Fe(PO4)4,3.566
Sr(H8O5)2,3.566
Na3MoNO3,3.5662000000000003
Ca2Al2O5,3.5662000000000003
Tb2(MoO4)3,3.5663
NdTl(MoO4)2,3.5665000000000004
Na3Y(BO3)2,3.5665000000000004
SrZrO3,3.5667
Mg2H2O3,3.5667
KEr(MoO4)2,3.5667
Sr4Nb2O9,3.5667
BeI2,3.5667000000000004
Li2V(SO4)2,3.5672
La3Ta(Cl3O2)2,3.5677
Na3Zr2SiSn2P5O24,3.5678
CsPr(WO4)2,3.5679
Tb2(MoO4)3,3.5679
CdH18Se4(N2O7)2,3.568
Li2GeO3,3.568
Na8Zr3ZnSi4(PO12)2,3.5681
Li7Mn(BO3)3,3.5681000000000003
Na10Hf4Zn4Si5S7O48,3.5682000000000005
K2SmAgCl6,3.5685
Na6Hf7MgSi6(SO8)6,3.5687
Cs2TeP2H8O13,3.5688
ErWClO4,3.5689
InCo3(CO)12,3.5689
Rb2Zr(MoO4)3,3.5691
SrCa2I6,3.5691
LiFeP2H5O9,3.5691
LiFePO4,3.5691000000000006
AlH12(NO5)3,3.5696000000000003
Ca3Ta4(O6F)2,3.5696000000000003
Li4Si2NiO7,3.5697
Na6Y3TaSi2(PO6)4,3.5697
NaZr2(AsO4)3,3.5699
Na2ZrTaSi2PO12,3.57
SrCaMg30O32,3.5705
LiFeF3,3.5705
Li3Ho3(TeO6)2,3.5705
H4SNO4,3.5707
Na3Pr(AsO4)2,3.5708
Na6Sc3TaSi2(PO6)4,3.5709
Li4Mn2CrNi3(PO4)6,3.5709
Na10Y8Si5S7O48,3.5711000000000004
C3S2(OF2)2,3.5712
MnH7C3NO6,3.5713
LiTaSiO5,3.5714
Na14Sc4Al4Si7S5O48,3.571600000000001
Na5CaZr3SiP5O24,3.5717
ZnSiO3,3.5718
Ge5P6O25,3.5718
SnB4O7,3.571999999999999
NaMgGa3(SO4)6,3.5721000000000003
Cs3PO4,3.5723
CdH8(NO5)2,3.5725
H5NO2,3.5725
LaP2H2O9,3.5725
Na10LaTa7(SiO4)12,3.5726
Mg2Ta2Ni2O9,3.5727
TaInO4,3.5727
K3H(SeO4)2,3.5728
NdIO,3.5729
TbOF,3.573
Rb2LaAgCl6,3.573
Na6Ti2O7,3.5731
Ba2CaI6,3.5732
Rb2SbF5,3.5733999999999995
BaSrSm4O8,3.5735
Na6Ca6Hf2SiS11O48,3.5737
ZnH7C4N3O7,3.5737
Li2Mn3(P2O7)2,3.5737000000000005
Sr5As5HO18,3.5738
H7NO6,3.5739
NaMg14TiO16,3.5741
Rb2Th3Mg(MoO4)8,3.5741
CsEr(MoO4)2,3.5742000000000003
Ba4Al2O7,3.5745
CdH4CN2Cl2O,3.5746
Nb5H50C12(NO7)3,3.5747
Mg5H8O9,3.5747000000000004
K3MnPCO7,3.5748
Ca2AlH10ClO8,3.5749
La4Al2O9,3.5749000000000004
PrAlGe2O7,3.575
RbYMg6O8,3.575
Nd3Ta(Cl3O2)2,3.5751
Ho2(MoO4)3,3.5751
ZnSb2P2O9,3.5751
La3O2F5,3.5752000000000006
Mg2SiO4,3.5753000000000004
FeP4O11,3.5754
InSi4H41C15O,3.5755
Tl3SiF7,3.5757
Li2Fe2(CO3)3,3.5757
Li4Mn3P3O12F,3.5760000000000005
NaScInP(SO6)2,3.5761000000000003
AlH14SeNO14,3.5761000000000003
Mg3(AsO4)2,3.5764
ZnGa2(TeO3)4,3.5765
ScAs2H4NO7,3.5766
Mn(CO)5,3.5767
BN,3.5767
S(ClO)2,3.5768
Si(NiO2)2,3.576999999999999
Na4Al3Cr(P2O7)4,3.5769999999999995
Ru5C14(SO7)2,3.577
Sr2TaAlO6,3.5770000000000004
KGaBr4,3.5771
SrAlSi5N7O2,3.5771999999999995
H3CO3,3.5773
K2TeO3,3.5774
CaCN2,3.5774
AgC2N3,3.5775
Li2SiNiO4,3.5775
LiSnPO4,3.5775
Nd3Ho2(GaO4)3,3.5775
Na10Sc7Ta(PO4)12,3.5775999999999994
Dy2(MoO4)3,3.5777
CsBaIn2(PO4)3,3.5777000000000005
Li2SeO4,3.5781
AgH8C4N8F,3.5781
Ca(H8O5)2,3.5783
KLiWO4,3.5783
Na10Y7Ta(PO4)12,3.5783
Ca3V2O8,3.5784
Cs2KInCl6,3.5784
Al10Si2O19,3.5785
CsPb2Cl5,3.5785
BaFe(Si2O5)2,3.5786
ErAsO4,3.5786
Li4Mn(BO3)2,3.5788
KHo(MoO4)2,3.5792
Cs2ScTlCl6,3.5792
Sb4F15,3.5793
PrTaO4,3.5794
Li2Ni(CO3)2,3.5794
Li2Mn(SO4)2,3.5794000000000006
Pr(C2N3)3,3.5795
H4CN2O,3.5795000000000003
H42C48Xe(ClO2)3,3.5795000000000003
SmNbO4,3.5797
RbLaMg30O32,3.5797
SrH10Pb2Br6O5,3.5798
Na3P2H4O7,3.5798999999999994
MnH4S(NO2)2,3.58
Li3Ni2(PO4)3,3.5801
LiFeP2H5O9,3.5801
ZnGaP2H4NO8,3.5802
Li2TeO3,3.5802
Sr3WO6,3.5804
Fe3P2H6O11,3.5808
NaTeH6O6F,3.5809
KBi2F7,3.581
La2Te3MoO12,3.581
Dy2(MoO4)3,3.5811
Zr25Sc6O59,3.5813
Dy2Ge2O7,3.5813
LiFePH2O5,3.5813999999999995
Ba3Na2Cr4F20,3.5814
Ba2NdSbO6,3.5815
Mg3NF3,3.5818
CaSmMgNbO6,3.5820000000000003
Na2ZrNi(P2O7)2,3.5821000000000005
Er(ReO4)3,3.5822
Li3Er3(TeO6)2,3.5823
Y2Hf2O7,3.5823
NaMgBO3,3.5823
H2S2O7,3.5825
BaCdP2O7,3.5826
Sr2ZnWO6,3.5827000000000004
Li3GdO3,3.583
Zn3P2H2O9,3.583
Na5LiFe2P2(CO7)2,3.5831
Na4Mg2Al2SiS5O24,3.5832
K3Ni2F7,3.5833000000000004
ReClO3,3.5834
ScH7(NO5)2,3.5835
Li2Mg11(WO4)12,3.5836
Na2Hf3Zn5(SO4)12,3.5836
BaMg6SnO8,3.5838
CdPd(CN)6,3.5839
Li2Sn(PO3)4,3.584
CsK2TlF6,3.584
K4TeP4(HO2)10,3.584
ZnSi3GeH35C13ClO,3.584
BaH6C2SNO5,3.5841000000000003
Rb2YTlBr6,3.5841000000000003
AlSiPH9C3NCl6,3.5842