formula,band_gap (MP)
Cd2B6PbO12,3.5842
Li3Bi(PO4)2,3.5843
Al2(MoO4)3,3.5843
BaPb3(NO3)8,3.5843
Na6CaZr3Si2(PO6)4,3.5844000000000005
HCN3O,3.5844000000000005
CsP4N7,3.5845
Mg(IO3)2,3.5845
CsTm(MoO4)2,3.5847
CaMg14NiO16,3.5849
TiH12N3F7,3.585
Na7Mg2In2P5SO24,3.585
Mg14CoSnO16,3.5852999999999997
NaY2Al2PS5O24,3.5853999999999995
Li2MnF4,3.5855
Sr4I6O,3.585500000000001
CaH2CClO3,3.5857
Mn9Al8Fe3(SiO4)12,3.5858
Li4SiGe3O10,3.5859
CdH6C2O7,3.5862
Na14Y4Sc4Si7S5O48,3.5863000000000005
PrTl(MoO4)2,3.5864
Tl3GeF7,3.5864000000000003
Nd(HO)3,3.5864000000000003
LiFeF3,3.5865
YbTiO3,3.5867
MgGaH5,3.5867
LiFeF3,3.5869
Ba3Cd(SiO4)2,3.587
BaZnSiO4,3.5871000000000004
Li2SnP2O7,3.5874
BaCaLaSbO6,3.5874000000000006
Hf3SnO8,3.5875000000000004
LiFePO4,3.5877000000000003
KMg30CrO32,3.5878
Rb2TeO3,3.5879
Tb3SOF5,3.588
Li4BH10N3,3.588
LiMgAl(MoO4)3,3.5881000000000003
Ba3SrY2(SbO6)2,3.5883
CaTaBiO5,3.5884
BaSrTbSbO6,3.5885
TeH15C5NOF6,3.5886
CsSbOF4,3.5887
KY(MoO4)2,3.589
TmWClO4,3.5891
Ca2LaSbO6,3.5891
HoCo(BO2)5,3.5892000000000004
BN,3.5892000000000004
HCN,3.5894
Li5GaO4,3.5894
LiFe2P2HO8,3.5894000000000004
Ba6Dy2Ga4O15,3.5896000000000003
PrH16C2N11O17,3.5898000000000003
SrHI,3.5902
RbMg30GaO32,3.5902000000000003
FePH6NO5,3.5902000000000003
InH3(IO4)2,3.5905
Mg2BiPO6,3.5905
Na14Zr4Sc4Si9(SO16)3,3.5905000000000005
Na10Y4Hf4Si7S5O48,3.5905000000000005
BaFeF5,3.5907
SnP2PbO8,3.5908
K2Th(MoO4)3,3.5908
SrTiH4(OF3)2,3.591
Dy3GaO6,3.5913
MgFe(SiO3)2,3.5914
K2Th(NO3)6,3.5914
Na10Hf6Mg2Si7S5O48,3.5915
NaLi2MnPCO7,3.5916
LiMnPO4,3.5916999999999994
MgAl4(HO)12,3.5917
LiBiP2O7,3.5917
YWClO4,3.5918
NaSnPHO4F,3.5919
KInH8(CO3)4,3.5919
NaCaMgCr(SiO3)4,3.5919000000000003
PbWO4,3.592
Be4N6O19,3.592
Li3NiPCO7,3.5921000000000003
TbH8C21(O2F3)5,3.5923000000000003
Li4CrP2(O4F)2,3.5923000000000003
LiMnF3,3.5925
Ba4SrHf5O15,3.5926
MnH7C3NO6,3.5926
CoP4O11,3.5927999999999995
LiFePO4,3.5929
Li3AlH6,3.5929
Li2FeF4,3.5932
NaCaAsO4,3.5934
LiMg30CrO32,3.5934000000000004
Li2V2(SO4)3,3.5936
Rb2Al2Sb2O7,3.5936000000000003
RbMg30CrO32,3.5937
Zn2TeCl2O3,3.5938
ZnSiO3,3.5938
H18AuN6Cl,3.594
NaIn(MoO4)2,3.5942
Tb2(WO4)3,3.5942
CaP3H16(NO4)3,3.5943
Sn(PO3)2,3.5944
Ba7GeB3ClO13,3.5944000000000003
Y3Sc2(GaO4)3,3.5945
Na4HfZnSi(PO6)2,3.5948
Ba2Ni2ClF7,3.5948
CaZn2H12(BrO)6,3.5949
LiMnF3,3.595
LiFePO4,3.595
Al22PbO34,3.595
P2Pb2O7,3.5951000000000004
Sb7F29,3.5953
Rb2Zn2(MoO4)3,3.5953
Na2H3CO6,3.5954
Ca2GdTaO6,3.5954
KNa3WO5,3.5954
SbH24C6(NCl2)3,3.5956
KDy(MoO4)2,3.5956
AgBTe4C(OF4)5,3.5957
Ba6Tb2Ga4O15,3.5957000000000003
Lu(HO)3,3.596
Sr2LaGaO5,3.5964
ZnH4(BrO)2,3.5964
K2CoH8(CO5)2,3.5964
Rb3Sc(HO)6,3.5968
Cs2HfO3,3.5968
NaNi2H3(SO5)2,3.5968
Mg3Fe(SiO4)2,3.5972
Si4WO10,3.5973000000000006
LaHBr2,3.5973999999999995
Mo2H12C4N2O15,3.5974
BaLaCl5,3.5974
B3C3N7,3.5977
KTl2CrF6,3.5979
Th(MoO4)2,3.5981
LiMnPO4,3.5981
Na10Zr4Ta4Si11SO48,3.5982000000000003
MgAl8Fe3Si8(H2O5)8,3.5984
RbCaI3,3.5985
PNCl2,3.5985
CaSi2NiO6,3.5985
Al2NiO4,3.5985000000000005
LiMnF3,3.5986
KTaSi2O7,3.5987
NaTbGeO4,3.5988
NaLi2MnPCO7,3.5988
LiCO2,3.5989
Nd2BeGa2O7,3.599
Hg(C2F3)2,3.599
Li2MnPO4F,3.5992999999999995
La2MoO6,3.5993
Li3Fe2P5O16,3.5993
AlB3N4,3.5993000000000004
HfZrO4,3.5994
KMgIn(MoO4)3,3.5994
NaLi5Mn2P2(CO7)2,3.5994999999999995
Pb(NO3)2,3.5995
Cs5Bi(MoO4)4,3.5996
Sr4Al6MoO16,3.5997
LiMnPO4,3.5998
Ba4Ta2O9,3.5999
CsCrH18N6(ClO2)4,3.6
Ca2GeO4,3.6002
Pr2(MoO4)3,3.6007
BaCa2I6,3.6008000000000004
K2SeO4,3.6011
Tb2Ge2O7,3.6011
LiTiP2O7,3.6012000000000004
Ga(C2N3)3,3.6013
BaSrLaSbO6,3.6013
LiGaCl3,3.6014
Rb2CoH8(CO5)2,3.6014
Li5Mn2(PO4)3,3.6014000000000004
CaH6C2O7,3.6017
Li14P2(N2O)3,3.6017999999999994
Rb3ZnBr5,3.6019
SiO2,3.602
CsDy(MoO4)2,3.602
RbDyO2,3.6020000000000003
Na4ZrZnSi(PO6)2,3.6021
BaO2,3.6022
SrNd2O4,3.6022
Na3Nd(AsO4)2,3.6022
NdAlGe2O7,3.6023000000000005
KCaI3,3.6023999999999994
RbEr(MoO4)2,3.6024
Na5LiFe2P2(CO7)2,3.6025
NiPH6NO5,3.6025
SrCN2,3.6025000000000005
Zn2P2O7,3.6027
Rb3Ta5O14,3.6027000000000005
BeI2,3.6032
LiMnF3,3.6033
Nd5As4(ClO4)3,3.6034
KNaSmTaO5,3.6034000000000006
Li6B3SbO9,3.6036
Li3Cr(Si2O5)3,3.6038
C2SeS2O7F6,3.6038
CaFeF5,3.6038
Sr2MgGe2O7,3.6039
Ba6Y2Ga4O15,3.6041
Na7MgGa3(PO4)6,3.6041
Mg2BiPO6,3.6043
Sr3Ca6V7BiO28,3.6044
Li2Ni3(P2O7)2,3.6044
Sr4Zr3O10,3.604600000000001
RbSc(MoO4)2,3.604600000000001
LiGa5O8,3.6047
K7P6H2NO22,3.6047
LiMnPO4,3.6048
BaFe2(PO4)2,3.605
TlHCO2,3.6051
Na10YTa7(SiO4)12,3.6052
Zr(WO4)2,3.6052
Na3Zr3AlSi3(SO8)3,3.6052
Na10Ta7In(SiO4)12,3.6052
Cs6Na2Nb6H36O37,3.6053
Rb3H(SeO4)2,3.6053
Tb3GaO6,3.6054
Ba2SmSbO6,3.6054
ZrCl4,3.6058
LiNi2P3O10,3.6058
LiSc(GeO3)2,3.605900000000001
NaNd9(Ge3O13)2,3.6061
LiFeF3,3.6062
RbYbI3,3.6062
Na2LiSbF6,3.6063
Sr2LiIn(B2O5)2,3.6063
SnWO4,3.6063
Na8Hf2Ga2Si5SO24,3.6063
Ga2Mo(SeO5)2,3.6065
Sm2Se5O13,3.6065
Li2FeF4,3.6065
HoGaO3,3.6066
TmGaO3,3.6067
CrH17N4Cl2O3,3.6068
CN2,3.6068
ScClO,3.6069
BaSrSmSbO6,3.6073
Na7CaAl3Si3(SO8)3,3.6073
RbDy(MoO4)2,3.6073
LiFeP3(H7O8)2,3.6075
Cs2LiBiCl6,3.6075
LiPr2C2N4F3,3.6076
ZnC4(NO3)2,3.6077
Sr2Zn3Te2(PO7)2,3.608
LaNbO4,3.6083
Na5Zr3ZnSiP5O24,3.6084
SrTiSi2O7,3.6085
Rb2SeO4,3.6085
CsY(MoO4)2,3.6086
RbYO2,3.6087
CsHo(MoO4)2,3.6087
Ca3Al4Si8(ClO12)2,3.608800000000001
Na2TaSi2SnPO12,3.608800000000001
LiMnPO4,3.608800000000001
BaSrI4,3.6089
HoAsO4,3.609
Pr4Ga2O9,3.6092
CaSnP2O7,3.6093
LiMnPO4,3.6094
Cs2LaAgCl6,3.6099
CsK2Mn3P4ClO14,3.61
Li3Ni5OF11,3.6106
SrCrF4,3.6107
Na6MgZr3Si2(PO6)4,3.6107999999999993
Li3Bi(PO4)2,3.6108
Sr(H8O5)2,3.611
P,3.6113
Na2Zn(SiO3)2,3.6116
KTb(MoO4)2,3.6116
K2NiH12(SeO7)2,3.6116
LiFePO4,3.6118
Na4La2Hf2Si3(SO8)3,3.6119
K2SeO4,3.612
Tm(HO)3,3.612
Cd(C4N3)2,3.6122
SiO2,3.6123
LiFe(PO3)3,3.6123
La3W(ClO2)3,3.612400000000001
BaSrI4,3.6126
Na4LaZrSi2PO12,3.6128
Dy3SOF5,3.6131
Cs2CaSnCl6,3.6131
LiTl3(MoO4)2,3.6132
K3LuSi2O7,3.6132
Th(As4O9)2,3.6132
CsSrI3,3.6132
LiLaO2,3.6133
Rb5In(MoO4)4,3.6133
Sr5Fe3F19,3.6135
KTa(BO3)2,3.6136
La3Mo4O16F,3.6136
CrPb2F7,3.6136
NaTmGeO4,3.6137
NaHoGeO4,3.6138
Zn(H15N8)2,3.6138
Ba3Be2B5HO13,3.6139
Li2Sn2(SO4)3,3.6139
Er2GeO5,3.6141
Li2Fe3F8,3.6141
Na3Sc2Ga2P3(SO8)3,3.6143
Na2ZnPHO5,3.6144
Na8La2Hf2Si5SO24,3.614500000000001
CsY(MoO4)2,3.6146
Na5LiFe2P2(CO7)2,3.6147
Rb2Mo(OF2)2,3.6147
ZnGaP2H4NO8,3.615
MgFeF5,3.6151
Zr3Sc4O12,3.6151
NaReO4,3.6152
K3SmSi2O7,3.6153
Rb2LiBiCl6,3.6154
K6Si2S6O,3.6156
Na2H6Pt,3.6156
Ba4OF6,3.6156
KNd2NbO6,3.6157
Ba2FeF6,3.6158
KSc(MoO4)2,3.616
Rb2Th(MoO4)3,3.616
K2TlInF6,3.6161
MgI2,3.616200000000001
B10H13Cl,3.6163
Cs2Th(AsO4)2,3.6164
Na5Ta3Si6GeO24,3.616400000000001
RbMg14CrO16,3.6165
SrLiTa2O6F,3.6165
SrZrO3,3.6169
MnH9C4(NO2)3,3.6169
RbHSeO4,3.6169
Li3MnF5,3.617
LiN3,3.617
HfMg14BO16,3.6171
H22Pt2C6SO6,3.6173
H4CSN2,3.6175
LiFePH2O5,3.6175
NaCa2TiSi2O8F,3.6176
SrSn(BO3)2,3.6178
ZrMnH10O5F6,3.618
BaSr2I6,3.6181
BaCaHfSnO6,3.6182
K2LiBiCl6,3.6182
LiFeP3(HO5)2,3.6183
NaErGeO4,3.6183
KMg3AlSi3(O5F)2,3.6185
KHO,3.6187
LiFeF4,3.6188
H4CSN2Cl,3.6188
Ca4Al6O13,3.6188
BaTa2O6,3.619
Mn3Al4FeP4(H4O7)4,3.619
Na5LiFe2P2(CO7)2,3.6191
NaLi2AsF6,3.6192
RbY(MoO4)2,3.6192
SrCaI4,3.6192
P2H38Pt(C2N)6,3.6195
Na3Zr3ZnP5SO24,3.6195
Li4Fe(PO4)2,3.6195
BiSeClO3,3.6197
LiMnPO4,3.6197
Li6MnFeP2(CO7)2,3.6201
LaNdZr2O7,3.6203
K2NaTlF6,3.6205
Na3CaYSi(SO6)2,3.6205
LiNiPO4,3.6207
Na2HfTaSi2PO12,3.6208
RbNa2Mn3P4ClO14,3.6209
CoSiC4Cl3O4,3.6211
AlNi2BO5,3.621100000000001
Ba2LaTaO6,3.6213
K2TbAgCl6,3.6214
NaLi5Mn2P2(CO7)2,3.6214
KCSeN,3.6215
Na6La3TaSi2(PO6)4,3.6215
Si(H3C)2,3.6216
NaPr3Ge4O13,3.6216
NaLaHfSi(SO6)2,3.6217000000000006
NaCeH2S2O9,3.6218
BaZnBO3F,3.6218
PCN2Cl3,3.6218
LiMg10AlH24,3.6218
CaSiO3,3.6218
LiGe2(PO4)3,3.6219
Na5Zr2Ga2SiP5O24,3.622
Rb3H(SeO4)2,3.6221
LaClO2,3.6221
Na3Al2In2P3(SO8)3,3.6223
Na4Hf2Al2Si3(SO8)3,3.6226
KGe2(PO4)3,3.6226
Ba6Sm2Ga4O15,3.6226
Cs2NaTlF6,3.6228
Li2Zr2O5,3.623
MgSn(BO3)2,3.623
Na4H6Se2O11,3.623
CaMnP2O7,3.6233
Na3Li3Fe2F12,3.6235
ScTl(MoO4)2,3.6236
CaBiClO2,3.6238
InP2H9(NO4)2,3.6238
Na10Hf4Ta4Si11SO48,3.6238
BaMnGaF7,3.624
KScO2,3.6241
Si(H3C)2,3.6241
RbHSeO4,3.6244
P3H4N5Cl4,3.6244
SrAs2F12,3.6245
Li3FePCO7,3.6245
MgFe2S2(O4F)2,3.6246
CoH12CN4ClO7,3.6246
K6Ti2O7,3.6248
InH6(CO3)3,3.6248
P2SN2(Cl3O)2,3.6248
RbHo(MoO4)2,3.6249
RbHoO2,3.6251
MnH7C3NO6,3.6252
NaMg6TiO8,3.6252
LiAl(MoO4)2,3.6252
Na7Hf2In2Si3(PO8)3,3.6255
SbF5,3.6256
NaTl3F6,3.6256
SmAlGe2O7,3.6256
ZnH12C6S2(N5O)2,3.6257
Na2HfMgSi(SO6)2,3.6257
Na5Lu(MoO4)4,3.6258
Tm2WO6,3.6258
LiLaO2,3.6258
CsBaI3,3.6259
K2BiPCO7,3.626
KRb2MoF6,3.6262
Pr3Lu2(GaO4)3,3.6264
K4SiO4,3.6265
Rb2Sb2OF10,3.6265
BaEr2O4,3.6265
Ba4Na2W2O11,3.6266
H8CN6,3.6266
Sr3Be2B5HO13,3.6266
K2H4IO5,3.6266
Ca10P6SeO24,3.6266
KMn6P7O24,3.6268
Na8HfMg3(PO4)6,3.6269
Li4CrF6,3.6271
Li2H2SeO5,3.6272
H8Se(NO2)2,3.6272
Sb2(SO4)3,3.6274
NaFePH2(CO3)2,3.6274000000000006
MnAlPH4O7,3.6275
Na2ZrZnP2SO12,3.6275
BaSrPrSbO6,3.6275
DyAsO4,3.6275
Na2Y3Te4(ClO4)3,3.6276
Mg(ReO4)2,3.6278
HfGaP(SO6)2,3.6278
LiH2IO,3.6278000000000006
Rb2NaTlF6,3.6281
Pr3GaO6,3.6286
RbLa(MoO4)2,3.6286
LiMnF3,3.6287
KBa2Zn3B9O19,3.6287
CdH20N6OF2,3.6288
K2CO3,3.6288
LiMnF3,3.6288
Li2Fe4OF8,3.6288
Li2Mn3P4(HO4)4,3.6289
Al11InO17,3.6292
Na4Ga3Si3IO12,3.6294
K3VO4,3.6294
Na7Mg2Zr2SiP5O24,3.6294
K2LuAgCl6,3.6296
Li2CdCl4,3.6297
Na2LiFePCO7,3.6297
Na4HfMgSi2SO12,3.6297000000000006
Ca3(AsO4)2,3.6298
Na9Al2(H9O7)3,3.6299
Li3FePCO7,3.63
Na8CaZr3Si5SO24,3.6301
Na9Ca5TaP6(SO12)3,3.6301
Na3BiBPO7,3.630100000000001
BaSrLaSbO6,3.6302
LiTaGeO5,3.6303
NaYMg14O16,3.6304
Li3Fe2F9,3.6305
LiGe2(PO4)3,3.6307
BaCaI4,3.6308
Na6Ti2O7,3.6309
SrAl2SiN2O3,3.6311
Na4Mg2Si(SO6)2,3.6311
Pb(C2N3)2,3.6314
LiSn(PO3)3,3.6314
LiSm(WO4)2,3.6314
Ba2LaTaO6,3.6315
Rb2Be2O3,3.6315
AuC2N3,3.6316
Li3MnF5,3.6318
MgCo(PO3)4,3.6318
NaLuGeO4,3.632000000000001
Na4CaHfSi(PO6)2,3.6323
CsEr(MoO4)2,3.6324
Li2MnF4,3.6324
Sr9La5Cl33,3.6325
InH10N3O14,3.6327
Ba(NO3)2,3.6327
Li2ZnSiO4,3.633
Na2ScInP2SO12,3.633
H10C4SN2,3.6331
H11C4Br2N,3.6335
Li4Al3Ge3BrO12,3.6335
Na3ZrZn3PS5O24,3.6336
Ho2WO6,3.6336
Na4Zr(MoO4)4,3.6338
MgGeO3,3.6339
Ba4Br6O,3.6339
Cs3GaCl6,3.6339
CsMg14SbO16,3.634
NaAsO2,3.6341
K2DyAgCl6,3.6341
Rb2H8O5,3.6342
K2Th3Mg(MoO4)8,3.6343
SrLaScO4,3.6344
Ca3Er3Ge2BO13,3.6346
Na4HfInSi2PO12,3.6346
TlIn(MoO4)2,3.634700000000001
YBrO,3.6348
Ba2ScCl7,3.6349
La7YAl8O24,3.6351
DyGaO3,3.6351
Na2CdCl4,3.6352
NaCrH22N6(Cl2O)2,3.6354
Ba2CaI6,3.6354
Na3YIn(PO4)3,3.6355
NaLi3GeO4,3.6355
Na2MgSiO4,3.6357
K3BePCO7,3.6358
Na6Ta8Si11SO48,3.6359
K2Fe3P4(HO4)4,3.6361
GaH3Br3N,3.6361
Li2Mn(Si2O5)2,3.6361
BaSrI4,3.6362
LiFeF4,3.6365
Na6Ca4Sc4SiS11O48,3.6366
Nd(C2N3)3,3.6366
BaSrNdSbO6,3.6367
HgB(CN)4,3.6368
BaCa2I6,3.636800000000001
H7C7(NO2)3,3.637
ZnH20Se2(NO7)2,3.637
IOF3,3.637
Al2NiO4,3.6370999999999993
Na5Ca2Sc2P3(SO8)3,3.6372
Rb5HfFe(MoO4)6,3.6372
SrZnH6O5,3.6372
InH4NCl4,3.6374
LuGaO3,3.6376
Na8Zr2Ga2Si5SO24,3.6376
K3ScSi2O7,3.6378
Sc2Se3O10,3.6378
La3Al2Ga3SnO14,3.6378
Cs2Al2Sb2O7,3.6378
Na3GePCO7,3.6381
C3S2(OF2)2,3.6381
Ba2TiOF6,3.6382
CaSnP2O7,3.6382
Na10Ca2Hf6Si7S5O48,3.6383
NaSi5N7,3.6384000000000007
Ho3SOF5,3.6385
KNaLaNbO5,3.638700000000001
RbMg14TiO16,3.6388
Cs3TlF6,3.6388
Er6Si11N20O,3.6389
BaNd2BeO5,3.6389
B3H5,3.6391
RbTaGeO5,3.6393
CaAl2Si3O10,3.6394
Rb2ZnBr4,3.6395
Sr(AlS2)2,3.6396
NaFeH4SO6F,3.6397
CsTb(MoO4)2,3.6397
Na6LaTa3(SiO4)6,3.6397
Ca(NO3)2,3.6398
Na3Sc(BO3)2,3.6398
Na10ScTa7(SiO4)12,3.6398
TaZnBiO5,3.64
Li2TeWO6,3.6401
FePH6NO5,3.6401
HCN,3.6401
Na2Ga2Si3(HO3)4,3.6402
SrBi2(B2O5)2,3.6402
DyAlGe2O7,3.6402
BaMg30ZnO32,3.6403
KBaVO4,3.6403
Na3LaV2O8,3.6404
LiFe4(PO4)3,3.6404
LiFeP(H6O5)2,3.6405
LiFePO4,3.6405
CsSm(MoO4)2,3.6407
K2Mn(SeO3)2,3.6409
Na6Hf7ZnSi6(SO8)6,3.641000000000001
AlAs(H2O3)2,3.6412
NaLi2FePCO7,3.6412
Al2Fe3(SiO4)3,3.6412999999999993
CrP2H15O14,3.6413
LiTaGeO5,3.6414
PbSO3,3.6415
Na5HfGa3(PO4)6,3.6416
LiZr2(AsO4)3,3.6422
KHO,3.6423
TeP6H30(NO4)6,3.6423
Na3Zr3GaSi3(SO8)3,3.642300000000001
SCl2O,3.6424
KIn(MoO4)2,3.6425
LiSbP2O7,3.6427
NaMg14CrO16,3.6427
SrH2I2O,3.6429
RbErO2,3.6429
PbWO4,3.6432
Na5LiFe2P2(CO7)2,3.6433
Na5Hf2In2SiP5O24,3.6435
DyNbO4,3.6435
Ba5Sc6O14,3.6435
Li3FeOF3,3.6437
B3H7C2S,3.6437
Cs3ZnBr5,3.6439
K2TmAgCl6,3.6439
Na5LiFe2P2(CO7)2,3.6439
AsSe(ClF2)3,3.644
SrMg14ZnO16,3.6441
K2ErAgCl6,3.6443
CsHSeO4,3.6444
MgZn2H12(BrO)6,3.6444
Li2FeP2O7,3.6444
Li2Fe(CO3)2,3.6445
Sr2HoSbO6,3.6445
K3InCl6,3.6446
RbCo(CO)4,3.6449
Na4LaScSi2SO12,3.6449
Li3NbO4,3.6449
K3TaO2F7,3.645
SrCaI4,3.645
Li3Fe(BO2)5,3.645
Na3VO4,3.6451
ThCl4,3.6452
NaAlGeO4,3.6452
Na2LiMnPCO7,3.6455
Na4ZrInSi2PO12,3.6457
H4IN,3.6458
BaLa2Sc2O7,3.6458
K3Zn2Cl7,3.6459
H8Se2N2O5,3.646
Rb2PrAgCl6,3.6461
Tl2SbF5,3.6463
H9PtC3Br,3.6463
Li12Mn3FeP4(CO7)4,3.6464
SiO2,3.6466
TbAsO4,3.6466
Zn2P2O7,3.6466
Sn2P2O7,3.6467
Zr5Sc2O13,3.647
NaYGeO4,3.647
KRb2CO3F,3.647
Li2FeSiO4,3.6475
Ba6NaNd(SiO4)4,3.6476
Li2NiPO4F,3.6477
K2MnH4(Cl2O)2,3.6477
KH2SeNO3,3.6477
LuAlO3,3.6479
Na10Hf6Zn2Si7S5O48,3.6479
MgAl4(HO)12,3.6481
Sr2CaI6,3.6483
Li3BiB4O9,3.6483
Na10Sc4Al4Si5S7O48,3.6483
K2SiO3,3.6483
Ba2PrSbO6,3.6484
DyNbO4,3.6484
Na3NiPCO7,3.6486
Y3TaO7,3.6486
BaNaBO3,3.6487
LiFePO4,3.6487
YNbO4,3.6489
Na2MoSeO6,3.6489
K2CO3,3.649
BaFe(Si2O5)2,3.6492
KSr2I5,3.6493
Rb5ErHf(MoO4)6,3.6494
CsLa(WO4)2,3.6495
Ba6Nd2Ga4O15,3.6495
CsRb2TlF6,3.6496
SiH12C8(NO2)8,3.6496
Ba2WO3F4,3.6497
LiFePO4,3.6497
ClOF3,3.6499
BaCa2I6,3.6499000000000006
FeH12C4(N9O2)2,3.65
HgH3CN3,3.65
K2SnH2Cl4O,3.6502
PrH10N(ClO4)2,3.6505
Nd3GaO6,3.6505
Nd3Tm2(GaO4)3,3.6506
Na2CaScP(SO6)2,3.6507
LiBiP2O7,3.6507
La2(MoO4)3,3.6508
K3TlF6,3.651
Na10Sc8Si5S7O48,3.651
Cs2ScAgF6,3.6511
KYbI3,3.6512
KH8WN2(OF)3,3.6514
LiMn(PO3)4,3.6515
LiH2N3O,3.6515
Nd2(WO4)3,3.6516
Ba(AlS2)2,3.6517
Na3La(AsO4)2,3.6521
K2PaF7,3.6522
H3CS,3.6523
Sr2CaI6,3.6524
B9H25C4NCl,3.6529
Li2BiPCO7,3.6529
RbMg6BO7,3.653
Li4MnSi2O7,3.653
Ba2Fe2ClF7,3.653
RbC2N3,3.653
Cs2ZrCl6,3.6531
NaSmO2,3.6533
Na2LaScSi(SO6)2,3.6534
KSm(MoO4)2,3.6536
NiH8(IO5)2,3.6538
Li3Bi(PO4)2,3.6541
Na2MoH2O3F4,3.6541
Al19CrO30,3.6543
Pr2(MoO4)3,3.6545
Sb3O2F5,3.6549
Rb2NdAgCl6,3.6549
LiNdO2,3.655
AlP3(NCl3)3,3.6551
CsH3(SeO4)2,3.6551
Er2WO6,3.6554
Ba2LaTaO6,3.6555
Li2Pr(NO3)5,3.6557
Ca4Al6O13,3.6557
Li2Ni2(SO4)3,3.6558
Ba2MgGe2O7,3.6558
Rb2SeO4,3.6558
K3NO4,3.6559
Sr(PO3)2,3.6559
K5H3S5O14,3.6559
BaSn(HO)6,3.656
Na5Zr2In2SiP5O24,3.6561
NaPr9(Ge3O13)2,3.6563
VOF3,3.6563
ScTl(MoO4)2,3.6563
K3NdV2O8,3.6565
Na2Mg3(MoO4)4,3.6565
Na3Zr3ScSi3(SO8)3,3.6566
Na7Zr2In2Si3(PO8)3,3.6567
CsNd(MoO4)2,3.6571
H12WN3(OF)3,3.6572
CaMg30CdO32,3.6572999999999993
K2BiH4Cl5O2,3.6573
SiGeN2O,3.6574
NaLi5Fe2P2(CO7)2,3.6574
MgNi3(P2O7)2,3.6574
K2ZnBr4,3.6576
Gd2(WO4)3,3.6577
Sn(CCl)2,3.6578
TaTl(GeO3)3,3.6578
Li3MnPCO7,3.6579
Ba6Pr2Ga4O15,3.658
H7C2S2N4ClO3,3.6582
K2TiZnO4,3.6582
La3Mg2TaO9,3.6583
Na3SbF6,3.6583
BaH4(IO)2,3.658300000000001
K3FePCO7,3.6584
PrIO,3.6584
SmAsO4,3.6586
K5Mo4O14F,3.6587
Zn2FeP2(H2O3)4,3.659
BiH(SeO3)2,3.659
Sr3Hf2O7,3.6592
SrH6(CO3)2,3.6592
NdNbO4,3.6592
Rb2TlInF6,3.6593
Pr2O3,3.6593
Be(PN2)2,3.6594000000000007
LiFeP2HO7,3.6594000000000007
Na7ZrZn3P5SO24,3.6596
ScHO2,3.6596
CsSbClF3,3.6597
YAsO4,3.6598
C18BrF13,3.6599
BaSnF4,3.6599
LiFeF4,3.6599
Fe2B3H7(CO)6,3.6599
NaCo(CO)4,3.66
Li3Bi(BO3)2,3.66
Li2FeF5,3.66
AgCN,3.6601
NdAg(PO3)4,3.6603
NaMg3Si4O11F,3.6605
Sr2CaI6,3.6605
Li3Fe(Si2O5)3,3.6606
Ba5Zn2B4(O6F)2,3.660600000000001
B9H11C2,3.6607
SrCaLaSbO6,3.6607
BaH2I2O7,3.6607
H16RhN5(ClO4)2,3.6608
Rb2Th(NO3)6,3.6611
CaHfO3,3.6612
Sr2SmSbO6,3.6616
K2ZrO3,3.6617
Cs2LiInCl6,3.6618
LiFeF4,3.6618
Ba2SrI6,3.6619
Zn4P3H7(NO6)2,3.662
MnB2F8,3.6621
Cs2Al2As2O7,3.6622
Cs6Ti2O7,3.6622
Na10Y4Sc4Si5S7O48,3.6622
Na10La4Sc4Si5S7O48,3.6623
H6CSN2O,3.6624
NaZrScO4,3.6625
KPrO2,3.6626
FeSi2C4(Cl3O2)2,3.6628
K3Bi2(NO3)9,3.6628
LiCaTa2O6F,3.6629
ErGaO3,3.6631
Ga2(SO4)3,3.6631
Li2MnF4,3.6632
SrLaCl5,3.6632000000000007
Na2Zn5(PO4)4,3.6633
SrCaHfSnO6,3.6634
RbTmO2,3.6636
Li2FeF4,3.6637
LiFe(PO3)3,3.6638
CaH14I2O7,3.6638
P6H17S6(NO)7,3.6639
Rb2LiVO4,3.664
Li3SbF6,3.664
CsCaI3,3.6642
Ba5Ta2Cl2O9,3.6643
Na6CaHf3Si4(SO12)2,3.6643
ZnH8C2S2(IN2)2,3.6644
Na4Ni5(P3O11)2,3.664400000000001
YZr6(PO4)9,3.6646
NbOF3,3.6646
Rb2ZnBr4,3.6647
Rb3PO4,3.6648
Ba2NdSbO6,3.6649
Na2Sc4Al4SiS11O48,3.665
CaY2O4,3.6651
ZrTe3O8,3.6651
Ba4Zn4B14Pb2O31,3.6652
Na2ScGaP2SO12,3.6652
Mg2GeO4,3.665200000000001
HC9N10Cl7,3.6655
Ho(HO)3,3.6657
In2P2O7,3.6658
MgFe2S2(O4F)2,3.6659000000000006
BaNa3PCO7,3.6661
Na4Li5(BO3)3,3.6661
LiAlH16(CN)4,3.6662
Be3Si3(WO6)2,3.6665
Na7Ca2Zn2P3(SO8)3,3.6665
Ga2(MoO4)3,3.6665
Na2LiFePCO7,3.6665
KVOF4,3.6667
Li2FeP2O7,3.6668
Cs2RbInCl6,3.6668
Na6Zr3ZnSi2(PO6)4,3.6668
NaLaO2,3.6668
BaSr2I6,3.6669
Al2P2NO8,3.667
Sr2CaI6,3.6671
SmP2H16C6NO13,3.6671
InP(H2O3)2,3.6671
ThCl4,3.6672
Sr2Zr7O16,3.6672
Rb3SbF6,3.6672
SrTb2O4,3.6672
NaYZrP2SO12,3.6672
CsK2GaCl6,3.6673
K3NaTh2O6,3.6675
LiMnPO4,3.6677
CsNd(MoO4)2,3.6679
Si6As2H36(C4O)3,3.6681
SrN6,3.6681
KTaP4O13,3.6681
Li4Si2NiO7,3.6686
Na8Ca3Hf(PO4)6,3.6687
HoBrO,3.6688
Na2Th(AsO4)2,3.6688
Ti(NO3)4,3.6689
Pr2(MoO4)3,3.6689
K2YAgCl6,3.6689
BaCa2I6,3.6691
K2NiF4,3.6693
InSi2As(H3C)8,3.6693
Na6Ca2Mg2SiS5O24,3.6694
BeH24C8S4(ClO2)2,3.6696
NaHf2Ga2P3(SO8)3,3.6696
NbOF3,3.6697
ScTl3F6,3.6697
Ca12Be17O29,3.6699
NaInP2O7,3.6701
Mg2BN2Cl,3.6701
RbSr2I5,3.6702
Na3Zr2Ta2Si3(PO8)3,3.6702
TbTaO4,3.6704
Lu2Ge2O7,3.6705
NaMg30CrO32,3.6705
Mn4P4O13,3.6706
Na8La2Zr2Si5SO24,3.6707
Li3H4IN2,3.6707
Na6MgZr7(PO4)12,3.670700000000001
P3CN4Cl7,3.6709
Na6Ta3Al(SiO4)6,3.6716
Sr3GaO4F,3.6718
Sr3(AsO4)2,3.6721
Cs2NaCrF6,3.6721
MgTaBiO5,3.6724
Ca7NbSi4O17F,3.6724
LiIn(SiO3)2,3.672400000000001
Sm2Ge2O7,3.6725
Na2W3O10,3.6726
NaZr3ZnP3(SO8)3,3.6726
CsOsC3(ClO)3,3.6727
BaSc2O4,3.6729
MgH12SO9,3.6729
Li2FePO4F,3.673
Rb2YInF6,3.673
Li5Mn2(PO4)3,3.673
CsSm(MoO4)2,3.6731
KSi2N3,3.673199999999999
Ni(CO)4,3.6732
Sb2(SO4)3,3.6732
Te2MoW3(SeS2)2,3.6737
Sb2OsC4(OF3)4,3.6738
Na4HfZn3SiS5O24,3.6738
K4Mg2H16S4O23,3.6738
Nd3O2F5,3.6738
Li3P3(WO6)2,3.6739
NaInH12(SeO7)2,3.6739
Sr2LaSbO6,3.674
Rb2Ga2B2O7,3.6745
SrCa2I6,3.6748
LiFeHSO5,3.6749
Na7Hf3Ta(SiO4)6,3.675
Sr3LaCl9,3.6752
Cl2O7,3.6753
Na7Y2In2SiP5O24,3.6753
Ca2Al2SiO7,3.6756
LiSbF4,3.6756
Rb4Nb2Si8O23,3.6758
CsSr2I5,3.6758
Rb2Cd2(SO4)3,3.676
NaCa2TiSi2O8F,3.6762
K2FeF5,3.6763
SrHfO3,3.6764
SbF5,3.6765
LiFePO4,3.6765
MgGeO3,3.6765
KHO,3.6766
BaSr2I6,3.6767
MgWO4,3.6767
LiSn2P3O10,3.6768
Fe3B7BrO13,3.6768
Na7Zn2Ga2P5SO24,3.6771
LiP2WO7,3.6773
Na3La5Cl18,3.6774
CsH4CN3,3.6774
Na5Ga4P5SO24,3.6774999999999993
CN6O,3.6775
KLaSi(CN2)4,3.6776
RbSm(MoO4)2,3.6776
Cs2Zr2ZnH12(OF2)6,3.6776
K4PH5Se3O16,3.6779
CaZrGeO5,3.678
K2MgMn2P6(HO10)2,3.6782
CdSi3PH27C9Br2,3.6784
LiFeP3H8O13,3.6786
TbB3H18C2S,3.6786
Li3FeF6,3.6786
RbYMg6O8,3.6787
Na2Y8SiS11O48,3.6789
PH4I,3.6789
Li2MnF4,3.6791
K2AlSn(PO4)3,3.6794
Sm3GaO6,3.6796
Li2Mn(CO3)2,3.6796000000000006
TbAlGe2O7,3.6797
Ca2ReN3,3.68
K2S2O3,3.6801
NaAlInP(SO6)2,3.6801
Na5Lu(SiO3)4,3.6802
Li2FeF4,3.6802
LiLa(WO4)2,3.6807
Na3CaSc3Zn(SiO3)8,3.680800000000001
Rb2LuAgCl6,3.681
Sr3SiO5,3.6811
Zn5P4H12C2(NO8)2,3.6811
Mn2Al4Si5O18,3.6814
SrMg30ZnO32,3.6815000000000007
Ba3LaCl9,3.6816
K2ZnH12(SeO7)2,3.6817
Ba2YBr7,3.6818
Na3YZrSi(PO6)2,3.6818
Si4MoH36C12(NO)2,3.6819
NiP2(PbO4)2,3.682
Sr4Al6WO16,3.6824
K2FeF5,3.6824
ZnH3CNO3,3.6825
LiFePO4,3.6826
Na4Hf2(GeO4)3,3.6827
SrCa3La2(SbO6)2,3.682700000000001
K2Sn(HO)6,3.6828
Ba4Zn4B14Pb2O31,3.6828
GeWO4,3.683
Rb2ZnH12(SeO7)2,3.6833
Ba4OF6,3.6833
SnPO3F,3.6834
Li4VO4F,3.6834
Li3MnPCO7,3.6835
Li2FeF4,3.6837
Na2SbPCO7,3.6837
Li6Mn5(P2O7)4,3.6838
Ba2PrSbO6,3.684
LiNd(WO4)2,3.6841
HgC2(NO)2,3.6841
Na4ZrGaSi2PO12,3.6841
Bi2PbF8,3.6843
Na2H18SO9,3.6843
K2FeF5,3.6845
Y3GaO6,3.6846
Li2MgBr4,3.6846
La2Mg3H48(NO5)12,3.6847
ErZr6(PO4)9,3.6848
CsScAs2(HO4)2,3.6849
MgFeF5,3.6849
BeTlAsO4,3.6851
Tl3SiF7,3.6852
H9C6N11,3.6852
KCaBr3,3.6852
Na4B2O5,3.6854
Sc2Ge2O7,3.6855
K3Ho(SiO3)3,3.6859
Li2NbOF5,3.6859
MgMo2O7,3.6859
Cd3H18S4N2O21,3.6861
LiFeF4,3.6863
Cs3Rb5(SeO4)4,3.6864
Ba3Gd(BO2)9,3.6864
KLi4NbO5,3.6866
Na4Y2Si2SO12,3.6871
NaMgZr3P3(SO8)3,3.6872
P3Pb5O12F,3.6872
InSi2P(H3C)8,3.6879
K3TbSi2O7,3.688
ScSeO3F,3.6881
P3Pb5O12F,3.6883
BaSrLaSbO6,3.6884
K2RbPrBr6,3.6885
KMgSb(PO4)2,3.6885
Na5Pr4Ge4O16F,3.6885
CsIn(MoO4)2,3.6886
Na14Sc8Si7S5O48,3.6888
Na6Ta3Ga(SiO4)6,3.6888
NdZr6(PO4)9,3.6888
ZrMn2H12(O3F4)2,3.6889
CaSiO3,3.6891000000000007
SmAsO4,3.6892
K2CdH2C8(N3O4)2,3.6893
Ba2ZrSnO6,3.6894
Sr3LaC2N4F5,3.6896
Li3FeF6,3.6897
RbSnF3,3.6899
KHoH8RuC6(N3O2)2,3.6899
Ba4Zn4B14Pb2O31,3.6902
Li3In(BO3)2,3.6904