formula,band_gap (MP)
LiFePO4,3.4886
Rb3AsCl6,3.4887
TlHCO2,3.4887
SbSO2F7,3.4888
W7(OF5)6,3.4889
Ba2SrI6,3.4889
SrAlSi4N7,3.489
Ba(HO)2,3.489
Li9V3P8O29,3.489
NaLaMgWO6,3.4890000000000003
H5SeNO4,3.4891
Nd2(SeO3)3,3.4891000000000005
LiFePH2O5,3.4895000000000005
PtC2S2(O4F)2,3.4899
Li2Si3NiO8,3.4899000000000004
ZnH2N2O7,3.49
KSrVO4,3.49
K3PF6,3.4901
DyNbO4,3.4902
RbAlO2,3.4902
Fe3B7BrO13,3.4903000000000004
H5SeNO4,3.4905
LiSn2(PO4)3,3.4906
BaSrPrSbO6,3.4907
Li2Cr(PO3)4,3.491
Li2CrP2O7,3.4910000000000005
NaLi2MnPCO7,3.4913
H7NO6,3.4913
Gd2W4O15,3.4916
Ba2YPaO6,3.4919999999999995
LiMnPO4,3.4921
La2WO6,3.4921999999999995
Sm3TaO7,3.4923999999999995
LaAlO3,3.4924
Ba2NdV3O11,3.4925
Rb8Ta6O19,3.4925
Cu2Si3H24C8(N10F9)2,3.4927
NdH16N7O19,3.4927
Ba2PrV3O11,3.4927
Fe3(PO4)2,3.4932
Li3GaGeO5,3.4933
CdH2SO5,3.4934
Na3Sc2(BO3)3,3.4934000000000003
NaLi2MnPCO7,3.4936
H9BrO4,3.4937
Ba3In(BO3)3,3.4937
Sc2Te(SeO5)2,3.4939
LiNiPO4,3.4939
SrCaI4,3.494
Ge3(BiO3)4,3.4941000000000004
MnH7C3NO7,3.4942
Na2CaZrP2SO12,3.4943
LiSnPO4,3.4943
NaGaBr4,3.4943
NaMg6BO7,3.494399999999999
LiFePO4,3.4944
Cs2Ti(PO4)2,3.4945
KNaSmNbO5,3.4945
AlTlSiO4,3.4946999999999995
LaZrP(SO6)2,3.4947
Y2(MoO4)3,3.4948
Na9Mg5TaP6(SO12)3,3.494800000000001
Na2LaPS2O7,3.4948999999999995
Cs3SbCl6,3.4949
Na2MnP2O7,3.495
ZnH8C4(NO3)2,3.4953000000000003
Ca6Si2H6O13,3.4957
LiHS,3.4957000000000003
CrP2H15N2O11,3.4958
Sr2PrGaO5,3.4958
Cs2YInCl6,3.496
LiP2WO7,3.4961
Zn2Si3Pb4SO15,3.4961000000000007
H2C3(N2Cl)2,3.4962
Y3TaO7,3.4962
LiMn2P3O10,3.4963
Na7Y3ZnSi3(SO8)3,3.4964000000000004
YAlO3,3.4965
Na3Nd2(NO3)9,3.4965
BaCaNdSbO6,3.4966
Ca6AlCr3(SiO4)6,3.4967000000000006
MgCrF4,3.4968999999999992
H7NO6,3.4969
Na14Mg4Al4Si5S7O48,3.4971
NaGa(WO4)2,3.4971
Li7SbO6,3.4971999999999994
NaHfInSi(SO6)2,3.4973
La2Th8O19,3.497399999999999
Cs2AlAgF6,3.4974000000000003
YNbO4,3.4975
MnH6(CO3)2,3.4977
PrVO4,3.4977
CsK2AsCl6,3.4978
Si4SbH38C14Cl,3.4978
W7(OF5)6,3.4979
AsH10C3I,3.498
ZnSnP2O7,3.4980999999999995
Ba2NdTaO6,3.4981
LiMnPO4,3.4982
BaCaI4,3.4982999999999995
LiHS,3.4984
CdAs2S2(OF3)4,3.4985000000000004
K2NdAgCl6,3.4986
CaSnF4,3.4986
Li3Fe2F7,3.4986
Pb(BrO3)2,3.4989
Li5La3Nb2O12,3.4989
BaCa2I6,3.499
Ca2As3Pb3ClO12,3.4992
KGaCoC4Cl3O4,3.4993
ZnCoP2O7,3.4993000000000003
Mg(IO3)2,3.4994999999999994
ZnTeO3,3.4996
Ca3Cd5(P2O7)4,3.4996
Li2CrP2O7,3.4997
CaSn2F6,3.4998000000000005
Sr3(GaO3)2,3.5
Nd3W(ClO2)3,3.5002
Na10Y4Mg4Si3(S3O16)3,3.5002000000000004
CaMoO4,3.5007
Nd4GeO8,3.5008
SrCa2I6,3.5008
Li5P2N5,3.5008000000000004
BaSrTbSbO6,3.501
Ba2SmV3O11,3.501
Na7Zr2Zn2SiP5O24,3.5011
Mg3CoB8P8(H8O13)4,3.5011
Zn3(AsO3)2,3.5015
Na3FePCO7,3.5016
CsSO4,3.5016
Li2FeF4,3.5017
K2LiP3HO9,3.5018
NaSc(WO4)2,3.5019
NaMgH3,3.5019
BaSrSmSbO6,3.5020999999999995
Ca3Al2(GeO4)3,3.5021
Na3NdV2O8,3.5022
Na5Y(MoO4)4,3.5023
AlSn2P(H3C)8,3.5023
CsRb2AsCl6,3.5025
K2WC2O9,3.5025
LiLa(MoO4)2,3.5025000000000004
LiNiPO4,3.5026
Na7Al2Si3Ge2(PO8)3,3.5026
Zr2Al2SiS5O24,3.5027000000000004
CsAg2(B5O8)3,3.5033000000000003
K2Al2Sb2O7,3.5034
Ge4PbO9,3.5035
YMoO4F,3.5035
Sm2SCl4,3.5037
Rb3GaCl6,3.5038
Ca3Y2(GeO4)3,3.5039
LiP2WO7,3.504
SrSc2O4,3.504
Sm3SOF5,3.5041
Sr2Mn3P4(HO8)2,3.5041999999999995
LiMnPO4,3.5043
Li2Si3NiO8,3.5043999999999995
Li3P3(WO6)2,3.5045999999999995
BaSrSmSbO6,3.5046
K2Be2Zn2Si3O11,3.5047
LiPPbO4,3.5047
InH5(NF)2,3.5049
Sr2LaCl7,3.5049
CsNd(WO4)2,3.5051
Na5Mg2Zr2P5SO24,3.5051
Ba(C4N3)2,3.5051
Li3Cr(Si2O5)3,3.5054000000000003
K2RbSbF6,3.5055
BaCaSmSbO6,3.5056
K2LiTlF6,3.5058
Sr6La2Ta3Al5O24,3.5058000000000007
NaCaMn2P3(HO6)2,3.5059
Li3MnPCO7,3.5059
FePH6NO5,3.5059
LiNiPO4,3.506
K2Fe(CO)4,3.5061
Mg(C4N3)2,3.5061
Na2LiBiCl6,3.5061
Na3B5S9,3.5062999999999995
Ca2NdNbO6,3.5065
TeMoWSe2S,3.5067
BaCaLaSbO6,3.5067000000000004
SmTl(MoO4)2,3.5068
Na6Ta3In(SiO4)6,3.5068
Sr2NdSbO6,3.507
Na5Y3HfSi3(SO8)3,3.507
Ba2TbSbO6,3.5072
BaSrNdSbO6,3.5072
BaZn2H16O11,3.5073
Y3Al3Cr2O12,3.5074
H16C3S3(N3O)2,3.5074
LiNiPO4,3.5079
KH(IO3)2,3.508
Li5Sb2P5O18,3.5081
Li2Fe2Si8O19,3.5081000000000007
RbH2(IO3)3,3.5082999999999998
SrBi6(PO5)4,3.5083999999999995
NaCaZr3P3(SO8)3,3.5084
Cs2Ti(Si2O5)3,3.5085
BN,3.5086
Li3Al2CrO6,3.5086000000000004
Ca2Ge7O16,3.5088
Ba4Nb2O9,3.5089
Na12MnCu2H16(SO4)8,3.5092
Ca2Ga2Si(HO4)2,3.5092
CdH8(NO5)2,3.5094
ZrGeO4,3.5095
KCdCl3,3.5095
La8Al7BO24,3.5096
Li3La2H6(N3O10)3,3.5098
VZn6P3O16,3.5098
TlBrO3,3.5098000000000003
MgH12(NO6)2,3.5098000000000003
SbAsO3,3.5099
Na3BSbPO7,3.5102
LiNiPO4,3.5102999999999995
Si3Bi2O9,3.5103
Ba2LaV3O11,3.5103
Er3TaO7,3.5103000000000004
Na14Hf4Ga4Si9(SO16)3,3.5104
Sn2SO5,3.5104
Na2Ta2(P2O7)3,3.5105
KRb2W(OF)3,3.5106
LiFeF3,3.5106
W5(O2F11)2,3.5107000000000004
NaPH5C2SN3O4,3.5108
K6Si2O7,3.5108
Na3YZr3Si3(SO8)3,3.5108000000000006
CaH2C2O5,3.5111
BSBr,3.5112
KSnF3,3.5114
FeH12N3(OF2)3,3.5115
K3Sm2(NO3)9,3.5116
Sr2LaTaO6,3.5116
Li6ZnO4,3.5116
Ta2Zn3O8,3.5117
Sr6Al12Bi2O27,3.5117000000000003
LiNiPO4,3.5118
Tm3TaO7,3.5119
CsNaICl,3.512
ErMoO4F,3.512
La2(SeO3)3,3.5120000000000005
Ba3As4(HO7)2,3.5121
Sr2YSbO6,3.5121999999999995
Na10Ca4La4Si3(S3O16)3,3.5122
SbOF,3.5122
Sr2CdWO6,3.5122
Li3Nd2H6(N3O10)3,3.5123
Na14La4Sc4Si7S5O48,3.5124
Ca2Ta2NiO8,3.5124
CaMg6NiO8,3.5124999999999997
Ga2Te4O11,3.5125
TbNbO4,3.5125
Ba2TbTaO6,3.5127999999999995
AlFePO5,3.5128
InPH5NO5,3.5128000000000004
LiMnPO4,3.5129
SbH32C8N4Cl7,3.5129
Na10Ca4Y4Si3(S3O16)3,3.513
LiMnPO4,3.5130000000000003
Li3FeOF3,3.5132000000000003
Na2Ti2Si4O13,3.5136000000000003
Ca(H8O5)2,3.5137
PmCl3,3.5137
Na10La7Ta(PO4)12,3.5139
As2PHBr3F11,3.514
TmWClO4,3.514
HgH4C12O3F8,3.5142
NaSc4PS5O24,3.5143
MgNi(WO4)2,3.5145000000000004
CaSiO3,3.5146
Na2Hf3Mg5(SO4)12,3.5146000000000006
LuAsO4,3.5146999999999995
KNaNdTaO5,3.5147
H13Se2N3O8,3.5147
Na5Zr2Zn2P5SO24,3.5147000000000004
CaNiP2O7,3.5149
Sr2ZnWO6,3.515
SnH18C6Br3N,3.515
Li2Fe(CO3)2,3.515000000000001
Ba6Zn(InCl10)2,3.5151
Na2Sc4Zn2(MoO4)9,3.5152
KLa(SeO4)2,3.5152
Ba6Tm2Ga4O15,3.5153
Dy3TaO7,3.5153
Ba2SrI6,3.5154
Cs2NaFe(CN)6,3.5157
Ca5As3ClO12,3.5157
Si2BPH29C9N,3.5158
LiFePO4,3.5158
Li3P5(WO6)4,3.516
NaScGaP(SO6)2,3.5161
H7CSeN3O4,3.5161
ThCd(MoO4)3,3.5168
BSBr,3.5168
ZnH6C2(SO3)2,3.517100000000001
BaZr(AsO4)2,3.5173
Pr2SbO5F,3.5176
NaSO4,3.5176000000000003
H4SeO5,3.5177
Na3P(SO)2,3.5178
Sr(H8O5)2,3.5178000000000003
CaSn4(PO4)6,3.5179
KTa(GeO3)3,3.5181
LiNd(PN2)4,3.5181000000000004
Rb2Li3GaO4,3.5182
LiMnF3,3.5182
Na3LaGa(PO4)3,3.5184
Li3MnPCO7,3.5184
H5CN3O4,3.5185
NaMgIn(SO4)3,3.5185000000000004
ZnH3CNO3,3.519
CaTeO3,3.5191000000000003
LaAlO3,3.5192999999999994
Na5Ca6Nd5Zr16O48,3.5193
KSO4,3.5193000000000003
Sn2P2O7,3.5193000000000003
RbLa(SeO4)2,3.5194000000000005
CaMg6CoO8,3.5196
Ba2MgFe2B2(P2O9)2,3.5197
NaLaMgWO6,3.5197000000000003
Tb2GdGa5O12,3.5199000000000003
Sr3Ga2Cl2O5,3.5201
H2S,3.5201
Li6VF8,3.5201
BaH9IO5,3.5202
NaLa(MoO4)2,3.5204
LaAlGe2O7,3.5206000000000004
K2Fe2P2O7F2,3.5208
Na2Sn(S2O7)3,3.521
LiNi(PO3)3,3.521
Na7Zr2Si5Ge2PO24,3.5211999999999994
BaFe2(PO4)2,3.5212
Na2Th(MoO4)3,3.5214
KMg14TiO16,3.5216000000000003
Fe2Ni(PO4)2,3.5217
LiFeF4,3.5218
Al2NiO4,3.5218000000000007
Na3Li3Mn2P2(CO7)2,3.5219
PuSi6H54(C6N)3,3.5219
Li3Tb3(TeO6)2,3.5219
RbLaO2,3.522
KLi3Ca7Ti2Si12(O18F)2,3.5221
Ca3Si2SnO9,3.5221
Na4Al3Ge3IO12,3.5222
LiMg30BiO32,3.5222000000000007
H9BrO4,3.5222999999999995
NaSn2(PO4)3,3.5224
Na2La2Y2SiS5O24,3.5225
Na5La3HfSi3(SO8)3,3.5225
AgH5S2O9,3.5225000000000004
Ac2O3,3.5226
Nd3Ga5SiO14,3.5227000000000004
CaSb4H6(SO8)2,3.5227000000000004
LiFePO4,3.5227000000000004
Na4ScGaSi2SO12,3.5228
Rb2BiMoPO8,3.523
LiFePO4,3.523
SrTa4O11,3.5232
Mg7Al22O40,3.5233
LiFePO4,3.5233
LiSb(PO3)4,3.5233
Na14Ca4Al4Si5S7O48,3.5233
CaMg14ZnO16,3.5234999999999994
Na4Ca2Y2SiS5O24,3.5235000000000003
LiMnPO4,3.5236
LiTePO5,3.5236
KHSeO4,3.5239
K2LiBO3,3.5239000000000003
Li4Mn3NbV2(PO4)6,3.524
Dy(IO3)3,3.5241
LiMnF3,3.5243
Li2Mn3F8,3.5244
PrBrO,3.5244
Na10Zr4Al4Si7S5O48,3.5245999999999995
SrSm2O4,3.5245999999999995
ZnWO4,3.5246000000000004
MgCd(CO3)2,3.5248
Ca11Si4SO18,3.5249
Tm(IO3)3,3.5250000000000004
BaNd2Sc2O7,3.5251
KMgH5(SeO5)2,3.5252
CdAs2C4SN4(OF6)2,3.5252
LiHS,3.5253
NaLi2MnPCO7,3.5254
B11H18C4S2NCl,3.5256
Li3MnPCO7,3.5256000000000003
BaSrNdSbO6,3.5257
CaH24(IN4)2,3.5261
Li14Mn5F24,3.5262
Na8HfZn3(PO4)6,3.5263
Ba6Er2Ga4O15,3.5263
Zn3P2Pb3WO14,3.5264
Na3Ce(PO4)2,3.5264000000000006
Re2NiO8,3.5265
Na14Hf6Zn2Si9(SO16)3,3.5265000000000004
NdBMoO6,3.5265000000000004
Li5NiP3O11,3.5265000000000004
Sr2CaWO6,3.5269
Li3BN2,3.5269000000000004
CaHI,3.5271000000000003
BiSeClO3,3.5272
MgMoO4,3.5272
Cs2SbF5,3.5273000000000003
RbC,3.5275
BaYBr5,3.5275
Sn(C6F5)4,3.5276
K2MgMo2(H2O5)2,3.5278
Na2FePO4F,3.5279
Na4LaHfSi2PO12,3.528
Na10Zn8SiS11O48,3.5281
LiSi3BiO8,3.5281
Sr2SmSbO6,3.5285
CaTaAlO5,3.5288
La6TaGa11O28,3.5288000000000004
CuSiH18C7S3I,3.0379
LiNiPO4,3.0380000000000003
Li3Co(BO2)5,3.0380000000000003
BaCaNdNbO6,3.0381
Cs4BaV6O18,3.0382
Mg6CuNiO8,3.0383
K2TeH10O9,3.0384
Li3V(PO4)2,3.0387
Na3Si2PO8,3.0387
Y3TaP2(SO6)4,3.0387000000000004
Na2La8SiS11O48,3.0388
Na6Hf4Mg4Si3(S3O16)3,3.0388
Na2TiZn2GeO7,3.0388
Na4Hf2Sc2Si3(SO8)3,3.0388
Dy2TeO6,3.0392
Na10Ca6Hf2Si3(S3O16)3,3.0394
H12CN10O3,3.0394
Ba2PrNbO6,3.0394
Na4YInSi2SO12,3.0395
Li2Mn2Si5O13,3.0396
LiCr(CO3)2,3.0397
Li8Mn5Fe3(BO3)8,3.0399000000000003
Ni5Te4(ClO6)2,3.04
Pd(CN)2,3.04
K3TaO8,3.04
Ni3Sb4(OF)6,3.04
LiFeF3,3.0401
Li2Fe(BO2)5,3.0402
Na6HfMg3Si2(SO6)4,3.0403
BaY3Br11,3.0403
KNaGeO3,3.0403
KNa2AsF6,3.0404
K2CoP4H10O17,3.0405
Li2FeO2,3.0405999999999995
RbPb2Br5,3.0406000000000004
OsC4ClO4,3.0409
K2NdI5,3.0409999999999995
K2P2H2O7,3.0413
Rb5Gd(MoO4)4,3.0413
Li4Mn3Fe(BO3)4,3.041300000000001
RbNO3,3.0415
Zr2Ti(PbO3)3,3.0417
Rb2Sc(NO3)5,3.0417
YI3,3.0417
WF5,3.0418
LiCr(PO3)4,3.0419
NdH3(SeO4)3,3.042
H5PbC2SBrN6,3.042
Al2NiO4,3.0421
Zn2PHO5,3.0421
BaSrDyNbO6,3.0423
Li2MnFe(BO3)2,3.0424
FePH5CO4,3.0424
NbCrO4,3.0426
H3CNO2,3.0427
SrMg30CO32,3.0427
KAlAs2O7,3.0428
LiNiPO4,3.0428000000000006
In3(PO4)2,3.0429000000000004
Na8La2Mg2Si3(SO8)3,3.043
Li2NiGe3O8,3.0431
BaSrGd4O8,3.0431000000000004
Li2MnF4,3.0432
LiCoF3,3.0432
InSnCl3,3.0433
TiSi7H48(C8O)2,3.0433
Ba3LaIn(WO6)2,3.0435
Li2SiSnCO7,3.0436
B5H8NO12,3.0436
Li2MnSiO4,3.0436000000000005
NdHoZr2O7,3.0438
Li4Fe3Ni(PO4)4,3.044
AgBH2OF4,3.044
Ba2I2O,3.0441
LiMnPH2O5,3.0441
AlSi3AgO8,3.0442
NaMg30BiO32,3.0444000000000004
RbPbF3,3.0445
BaNaLaWO6,3.0445
Li3V(PO4)2,3.0447
AlH3,3.0448
CdSO3,3.0449
Na2ZnH4(SeO5)2,3.0449
Zn8B4H3O15F,3.0449
CaCrP2O7,3.0451
NaCa2SiO4F,3.0452
MnC6S2NO5F6,3.0452
K2SN2O5,3.0452
TeCl4,3.0452000000000004
CrF3,3.0453
CsBrO4,3.0454
BaSiO3,3.0454
KGdP2H4O9,3.0454
Rb3MgH5,3.0455
Ba2V3BiO11,3.0455
As3HO6,3.0456
Na6Zn4Ga4SiS11O48,3.0457
B20H30C3N2,3.0457
Na5WNO4,3.0457
NdTaTiO6,3.0457
C7Cl8,3.0458
LiH2BrO5,3.0459
Na4Ca2Sc2SiS5O24,3.0460000000000003
MgSbOF3,3.0460000000000003
KVO3,3.0460000000000003
RbNaTi2(PO5)2,3.0461
FeTe3S3Cl3(OF2)9,3.0463
NaLi15V16O48,3.0463000000000005
Li2Sn(BO3)2,3.0464
VH20C2S2N6O13,3.0467
SnH6C(NCl)3,3.0469
KNO3,3.047
RbLiMg30O31,3.047
LiMnF3,3.047
K2LiTa6(PO8)3,3.0471
Y10W2O21,3.0471
Cs2NaSbCl6,3.0473
K5NaCe2(SO4)6,3.0474
H16S(N3O5)2,3.0474
CoSnC4Cl3O4,3.0475
Li2Nb4ZnO12,3.0476
KPaO3,3.0477
Na3Sc2Ta2SiP5O24,3.0478
NaH6C2S2N3O2,3.0479
Na2MoAs2O9,3.0479000000000003
NaTiPO5,3.048
Rb2Ti4O9,3.0481
Ge3Sb2O9,3.0481
Dy2TiO5,3.0481
P4SeO6,3.0482
Na5Ca3ZrP3(SO8)3,3.0483
FeH18C3(N3F2)3,3.0483
Sr2CuCO5,3.0484000000000004
GeBr4,3.0485
Pb(IO3)2,3.0485
NaZr2Sn2P5SO24,3.0487
BaI2,3.0488
Ca2ZnGe2O7,3.0488
RbLu(MoO4)2,3.0489000000000006
Na7Cr4P9O32,3.0492000000000004
Sm6H44N8O51,3.0493
Ga2Te2MoO10,3.0493
Na4TaGa3Si3(SO8)3,3.0493999999999994
Li2CoP2O7,3.0494
Co3P2(H2O3)4,3.0494
Li3H6Ir,3.0495
Na6Hf4Zr4Si7S5O48,3.0495
KY(WO4)2,3.0495
Zn7H10(CO8)2,3.0495
Na4Mg3ZrSiS5O24,3.0495
LiAlAs2O7,3.0497
H14RuS2(N2O3)2,3.0497000000000005
Li2MnFe(BO3)2,3.0498000000000003
Rb2Cd2(SO4)3,3.0499
CdSO4,3.0499
Na12Mg2Ta4(SiO4)9,3.0499000000000005
LiMg30BO31,3.05
KGdO2,3.05
AsH5C2(OF3)2,3.05
Si2SnO6,3.0501
MgSiO3,3.0501
AlBN2,3.0501000000000005
Mg4Ta2(SO4)9,3.0504
Mg2As2O7,3.0504000000000007
CaThV2O8,3.0505
VO2F,3.0505
Mg2Nb2NiO8,3.0506
As3Pb5ClO12,3.0506
Li2AlFeO4,3.0507
KLu(MoO4)2,3.0507
AlTeCl7,3.0508
Li2Fe3F8,3.0509000000000004
Rb5V3O10,3.0511
MgBi4(PO6)2,3.0512999999999995
K2HI2ClO6,3.0513
Na5LiMn2P2(CO7)2,3.0513000000000003
BiOF,3.0514
LiFeF3,3.0514
Ni(IO3)2,3.0515
ZnSe2O5,3.0515
VH12C6NO4,3.0515
BaSrYNbO6,3.0516000000000005
CsHo(MoO4)2,3.0516000000000005
FeF3,3.0517
Ca3ScFe(SiO4)3,3.0517000000000003
Ho2CoTe2(SO7)2,3.0518000000000005
Lu2TiO5,3.0518000000000005
LiFe2F5,3.052
GaAs(H2O3)2,3.052
Li2Cr(H2O3)2,3.052
Li2SeO4,3.0521
LiSn2(PO4)3,3.0522
Ca3SiO5,3.0522
Na2YGaSi(SO6)2,3.0522
Na2Be2O3,3.0523
Gd(IO3)3,3.0524
LiFeF3,3.0524
LiFeF4,3.0524
Rb2NaSbCl6,3.0525
Ba3V4ZnO14,3.0525
GaBiO3,3.0525
Na7TaSi6(SnO8)3,3.0527
LiFe(Si2O5)2,3.0527999999999995
BaCu(SiO3)2,3.0529
H9PbC3I,3.053
MgW2(OF4)2,3.053
Na8Sc3TaSi5SO24,3.0532
Rb2NaInCl6,3.0533
Tm2TeO6,3.0533
LiMn4(PO4)3,3.0534000000000003
Cs2HgCl4,3.0535
Li4Fe2Ni3Sn(PO4)6,3.0536
Hg4H9C4S3O14F9,3.0538
LiSi3BiO8,3.0538000000000003
Zr2In2SiS5O24,3.0538000000000003
Na2Cd3(P2O7)2,3.0538000000000007
LaGd(ClO)2,3.0539
Na30Mg4Ta20Si33(SO48)3,3.0540000000000003
Na2Y4SiS5O24,3.0542
As2WO7,3.0543
Ba(AlSe2)2,3.0544
LiCo(PO3)3,3.0544999999999995
BaLaInO4,3.0545
Cr(PO3)3,3.0545
Li5FeO4,3.0546
SrLaScO4,3.0547
Li4Ca2Mg(SiN3)2,3.0547
Cs3CdBr5,3.0548
Na2Ta3InSi2(PO6)4,3.0549
LiMg30FeO32,3.055
BaGe4O9,3.0551
LaGd3(ClO)4,3.0552999999999995
Tb4MgAl2(FeO6)2,3.0553000000000003
Sn(PO3)2,3.0555000000000003
Te4W(OF4)5,3.0555000000000003
Li2MnSiO4,3.0557000000000003
TeAs(BrF2)3,3.0558
LiFe(SiO3)2,3.0559000000000003
Cs3LaI6,3.056
Dy2Te4O11,3.056
BaNd2ZnO5,3.056
KCrO2,3.056
Ca2CoSi2O7,3.0560000000000005
Li3SbO4,3.0560000000000005
MgCoP2O7,3.0561000000000003
Li2Si4Ni4O13,3.0563
K2RbMoF6,3.0563
CsNbNi(OF2)2,3.0565
LiFeBO3,3.0565
Dy2(TeO3)3,3.0565
Na2Nb2(SiO4)3,3.0565
Rb2Cd3H6S3O16,3.0566
Sr3Te4O11,3.0567999999999995
VOF3,3.0568
KPrSmSbO6,3.0569
BaDy2ZnO5,3.0569
K5As3O10,3.057
KLiS,3.0571
RbVO3,3.0572
Li6WN4,3.0573999999999995
LiBi(PO3)4,3.0575
Na3TaTi(SiO4)3,3.0575
LiMn4(PO4)3,3.0575
H20SN8O13,3.0575
KTbH2C2SO9,3.0575
KBiH10C4O13,3.0577
Sb5O7F,3.0577000000000005
Al2(SeO4)3,3.0578000000000003
BaTm2ZnO5,3.0578000000000003
BNF8,3.0579
Sn2P2O7,3.0579999999999994
LiMnPH2O5,3.058
Pr2WO6,3.0580000000000003
Pr2MgTi4O12,3.0580000000000003
TaAsO5,3.0581
LiNiPO4,3.0582
K5V3O10,3.0582000000000003
CsSn2Cl5,3.0582000000000003
KRbMg14O15,3.0582000000000003
BaV2ZnO7,3.0584
K4Ti2PO4F9,3.0586
Gd2(MoO4)3,3.0587
Y2CoTe2(SO7)2,3.0587
BaHo2ZnO5,3.0589
NaSn2(PO4)3,3.0589
ZnSi2SnO6,3.0589000000000004
Mg14CdCO16,3.059
LiPH21S3N7,3.0591000000000004
Li8Mn3Fe5(BO3)8,3.0592
Na6La2Ta2Si5SO24,3.0592
Li2Co(CO3)2,3.0592
Li10Sc9Fe(SiO3)20,3.0593000000000004
Sr3TeO6,3.0594
Rb3B(SeO4)3,3.0595
Cr2B(PO4)3,3.0596999999999994
Na2Hf2Zn2SiS5O24,3.0599000000000003
NaMg6CrO8,3.0601
As2Cl3OF5,3.0602
Na2Sb5C2S2N2(OF3)3,3.0602
NaCoBP2H2O9,3.0603
ZnSnF4,3.0603
K2ScTlBr6,3.0604
Na5Li3V8O24,3.0604
ZnCdC4(SeN)4,3.0605
Li2Mn(CO3)2,3.0605
Dy2CoTe2(SO7)2,3.0606
CsInF3,3.0609
LiMnPO4,3.061
Ba6ZnCo5(SiO4)6,3.061
Na4CaIn(PO4)3,3.061
NaMnPO4,3.0610000000000004
Na2TiO3,3.0611
HNO,3.0612
KNaTi2(PO5)2,3.0614
NaCaZrP(SO6)2,3.0614
Li2FeSiO4,3.0614
Y2Mn3(SiO4)3,3.0614
Na5LiMn2P2(CO7)2,3.0615
BaNaPrWO6,3.0615
Li8Mn5Fe3(BO3)8,3.0615999999999994
Li2MnFe(BO3)2,3.0617
Na3GaSiSn(PO6)2,3.0617
Na5LiMn2P2(CO7)2,3.0618
Na2Ti2O5,3.0619
Cs2NaAsCl6,3.062
LiSiBiO4,3.0621
Tm2TiO5,3.0621
Na6Al2Ga2Si3(SO8)3,3.0621
RbNO3,3.0622
Na5LiMn2P2(CO7)2,3.0622000000000003
Na2MgTa(PO4)3,3.0622000000000003
Na2Sc3TaP4(SO12)2,3.0623
Li4AlCr3O8,3.0624
VF5,3.0625000000000004
Ca4Zn3Fe(SiO3)8,3.0625000000000004
CsGaS2,3.0626
Na2NiPCO7,3.0627
LiNiPO4,3.0629000000000004
GaAs(H2O3)2,3.063
WSF4,3.0631
Na4TiAs2O9,3.0631
Na2Co(Si2O5)2,3.0632000000000006
Sr2SmNbO6,3.0633
LiNiPO4,3.0633
BaEr2ZnO5,3.0633
NaVH2I2O9,3.0634
CsRb2MoF6,3.0636
Ca4La2Zr4O15,3.0637
ZnCoP2O7,3.0637000000000003
Ba4HfO6,3.0638000000000005
Ba2LaNbO6,3.0639
NaH2BrO5,3.0639
K2MgZr(MoO4)4,3.0641
Al4CdO7,3.0642
Na7Si5Sn2Ge2PO24,3.0643
Na4WO4,3.0645999999999995
Tb2CoTe2(SO7)2,3.0646
Tm6MgWO12,3.0646000000000004
Na6La3TaSi4(SO12)2,3.0646000000000004
BaCrP2O7,3.0648000000000004
Na2Sb4O7,3.0649
Sb(C2N3)3,3.065
NaScTa3SiP5O24,3.0651
Li8MnFe7(BO3)8,3.0651
Ba6CaI14,3.0651
Rb4BaV6O18,3.0652
Co3P4PbO14,3.0652000000000004
Mg14VZnO16,3.0656
LuNbO4,3.0656000000000003
LiFeF3,3.0657
K4BaV6O18,3.0658
LiMnPH2O5,3.0658
K6Te3(H8O7)4,3.0658
NdTa7O19,3.0658000000000003
KBaV3Cd2O11,3.0660000000000003
NiH20PdC4(NO3)4,3.0660000000000003
LiSm(MoO4)2,3.0660000000000003
Na2Hf3ZnSi2(SO6)4,3.0660000000000003
HgClO3,3.0661
BaTi(SiO3)3,3.0661000000000005
Pr2Ta2Cl2O7,3.0662
Li4Mo5O17,3.0662
Ta2ZnO6,3.0662000000000003
Na4Co3P4(H3O4)6,3.0663
XeIF7,3.0663
H7C2SN4Cl,3.0664
KTe3O6F,3.0664
HgAs2HF13,3.0664
K4Ge9O20,3.0665
Na3SiSnBO7,3.0665000000000004
As3(HO2)5,3.0666
Na2BiBSO7,3.0667
LiFeF3,3.0669
LuBr3,3.0669000000000004
CrP3(HO5)2,3.067
K2CuH8(CO3)4,3.0672
Na2LiMnPCO7,3.0672
TmTiClO3,3.0672999999999995
SmV2BiO8,3.0673
CaPbI4,3.0673
SrMg30FeO32,3.0674
Cr3H24C8(NO5)2,3.0674
K2AlAgF6,3.0675
Li2Si3H30(C5N2)2,3.0675
K3P(W3O10)4,3.0675
Ca2Al4Si8H14O31,3.0675
SnP2Cl8O3,3.0676
NOF,3.0677000000000003
Na2CoP2O7,3.0677000000000003
BaCa(GaO2)4,3.0678
VH14C4NO2F3,3.0679
Sm3Sb5O12,3.068
Mn(ReO4)2,3.068
Mg2H6Ru,3.0681000000000003
Li4MnSi2O7,3.0683
AsN9,3.0684
WN2(OF2)2,3.0684
KGaGe3O8,3.0684
LiSbO2,3.0684
SrCaPrSbO6,3.0684000000000005
NaMg30FeO32,3.0685
AgBTe4C2(O3F10)2,3.0685
MoWSe4,3.0686
Na15Ta4Zn8P15(SO24)3,3.0687999999999995
Mn5P3ClO12,3.0688
CsCoPO4,3.0688000000000004
Na6Ti2O7,3.0689
MgTi3ZnNiO9,3.069
BaBiBrO2,3.0691
TaCl3O,3.0691
NdGaGe2O7,3.0692
RbNbSiO5,3.0692000000000004
KVPO5,3.0694
Sr14Nb6O29,3.0694
BaCaSmNbO6,3.0694
GaAsO4,3.0694
Na4AlSi2GePO12,3.0694000000000004
Li3FeBO4,3.0694000000000004
Na8TaGa3Si4(PO12)2,3.0695
LuTiClO3,3.0696
Li3Mo3(PO4)4,3.0696
KNdZnWO6,3.0697
Ta5Zn(PO4)9,3.0697
Te(HO)6,3.0698
K2CrO4,3.0699
Na3Mg4Ta2P3(SO6)6,3.0699
LaBiO3,3.0699999999999994
Nb2Si2SO12,3.0701
Ge7H18O23,3.0702000000000003
Tb6H44N8O51,3.0702000000000003
BaSrNdNbO6,3.0703
BaTeO3,3.0703
LiMnBO3,3.0704
KScH4(C2O5)2,3.0704
Te5PbO11,3.0704
YLuO3,3.0704
H4N2O3,3.0705
Ba4CaZr5O15,3.0705
MoSO6,3.0707
KMn4(PO4)3,3.0707000000000004
H12WN3O3F5,3.0708
KTh2V3O12,3.0708
LiCoPO4,3.071
AsSeS2N2ClF6,3.0713
Lu2(TeO3)3,3.0714
PbBrCl,3.0714
Zn3BPO7,3.0714
GdHO2,3.071400000000001
CoH12(ClO3)2,3.0715
Li2Cr(Si2O5)3,3.0716
VH12SO11,3.0716
Na5Sc2Ta2Si3(PO8)3,3.0717
B10H18C2S,3.0717
Y2TeO6,3.0718
KCd6P7O24,3.072
Na5Mg3ZrP3(SO8)3,3.0721
Na14Zr3Zn5Si6(SO8)6,3.0723
AuCClO,3.0723
Li2Mn(SiO3)2,3.0724000000000005
Na3GaSiSn(PO6)2,3.0725000000000007
BaLa7Mg5Nb3O24,3.0726000000000004
Ba6YI15,3.0727
Na3MnPCO7,3.0727
Li4Cr3GaO8,3.0727
MgCrH10O9,3.0727
GaNi2BO5,3.0727999999999995
Rb2Ti(GeO3)3,3.0729
Li8Mn5Fe3(BO3)8,3.0729
Li4Fe(SiO3)3,3.0729
Li2MnFe(BO3)2,3.0729999999999995
KRbMg6O7,3.0730000000000004
DyH13C8N6O13,3.0730000000000004
Na5LaTa3Si5PO24,3.0730999999999997
CdSO3,3.0731
Ca2TiAlSi2O9F,3.0731
Er2SO2,3.0733
Na3InH3(SO4)3,3.0733
Mg2GeO4,3.0734000000000004
PBr3O,3.0735
Si3(WO6)2,3.0736
MnPH6NO5,3.0737
BaLiAl3P2(HO7)2,3.0738000000000003
Bi2Te2W3O16,3.0739
LiAlNi3O5,3.0743
Na14Sc4Zn4Si5S7O48,3.0744
Cs2HgCl4,3.0746
Tb4Mg(PO4)4,3.0746999999999995
LiFe4(PO4)3,3.0748
NiSeO3,3.0748
La2Mo4O15,3.0748
YBiO3,3.0748
Na3CoPCO7,3.0748999999999995
KAs4ClO6,3.0749000000000004
CaAs2WO7,3.075
Al2NiO4,3.075000000000001
In(IO3)3,3.0751000000000004
FeH9(NF)3,3.0752
AsC4S2Cl2O2F13,3.0753
InTeClO3,3.0755
RbNbGeO5,3.0758
TeH20C6(NCl3)2,3.0758
Rb2ScTlBr6,3.0758
Rb2W3SeO12,3.0758
BaPr2O4,3.0759
Ni2P2(C2O3)3,3.076
SrGa2(GeO4)2,3.0761
Na10Zr4Ga4Si7S5O48,3.0763
Dy3TaO7,3.0763000000000003
Na14Zr4In4Si9(SO16)3,3.0764
K3NaCr2O8,3.0764
Li2Mn2(SiO3)3,3.0765
Ba3NaNbO6,3.0766
Sr2Ni(SeO3)3,3.0767000000000007
LiMn2F5,3.0768
K2RbScV2O8,3.0768
Mg6VNiO8,3.0768000000000004
Na2Hf4Zn4SiS11O48,3.0768999999999997
Na3Ca3Zr2Si4(O5F)3,3.0769999999999995
Ca3Si3(MoO6)2,3.077000000000001
LiVF6,3.0771
Li12FeNi3P4(CO7)4,3.0772000000000004
CaTiN2,3.0773
YAl3(Si5N8)3,3.077399999999999
SrGd2O4,3.0774
K2CaZrH16(CO3)8,3.0775
YHoO3,3.0775
HoErO3,3.077500000000001
SiH2O,3.0776000000000003
La2Th3O9,3.0777
TaBi(P2O7)2,3.0778
Sr3La4O9,3.0779000000000005
MgTi2O5,3.0780000000000003