formula,band_gap (MP)
CaLaI5,2.0888000000000004
TiS4(NCl)4,2.0889
NaNd(GaS2)4,2.089
CaP3NO9,2.0891
Na6Ta2Ga6Si5S7O48,2.0891
V2PH10NO11,2.0892
Ba2CdS3,2.0892
K4UC3O11,2.0892
Mg2TaBiO6,2.0892
Na2CaGaP(SO6)2,2.0894
Na2PdF6,2.0894
SrNdHfFeO6,2.0894
Ca5W(N2O)2,2.0894000000000004
Na4Si2PbSe6,2.0895
YTiP(SO6)2,2.0896
Li3NbS4,2.0896
ZnSeO4,2.0896
AlCr2O4,2.089600000000001
Na2H5RuN5O12,2.0897
ClF,2.0897
NdMoBrO4,2.0897
Na4CaTa4TiO15,2.0898
Y3NbO7,2.0899
K3Bi(PS4)2,2.0899
SrNdCrSnO6,2.0901
CaPdF6,2.0902
TeSeS(NCl)2,2.0902
LiVP4(H2O7)2,2.0902000000000003
MgGa4(WO6)2,2.0903
MgV2(FeO4)2,2.0903
CaPrHfFeO6,2.0903000000000005
Li2P7(H3N)9,2.0905
MgMn2V2O8,2.0906
Na3LaSn3(PO4)6,2.0907
V6O5F19,2.0909
Nd2MgS4,2.091
Hf2N2O,2.091
Tm2MoO6,2.091
KLaCeSnO6,2.091
Li2V(Si2O5)3,2.0913
Mg(SnO2)2,2.0913000000000004
Na2La2Ti3O10,2.0914
NaSc3NbP3(SO8)3,2.0914
Rb2V3O8,2.0914
HfHg4(PCl3)2,2.0914
Na7Ca3Nb(PO4)6,2.0916
Na2NbInSi(PO6)2,2.0916
La6MgWO12,2.0916
Sr2NbBiO6,2.0916
Na6Y5Nb3(PO4)12,2.0917
K3Nb3Si2O13,2.0917000000000003
H5IO6,2.0918
Fe2Ni3H4(Se3O10)2,2.0918
CrHg(PbO3)2,2.0918
XeNO2F5,2.0918
TiFe3Bi3PbO12,2.0919
KNa2MoF6,2.0919
ZnPtF6,2.0919
Li6Br3N,2.0919
Re2S(ClO2)4,2.0921000000000003
K3NpO2F5,2.0921000000000003
Mg30ZnSnO32,2.092199999999999
Bi15PO25,2.092199999999999
P4Se3,2.0923000000000003
MnZn2WO6,2.0924000000000005
Rb4In2S5,2.0926
TeS7Br2,2.0926
Rb2LuAuCl6,2.0926
Na8TiO6,2.0926
FeSO4F,2.0927
KUH3SO8,2.0928
Rb2Mo3(As2O11)2,2.0929
TbI3,2.0929
Cs4Ge(PS3)4,2.0929
Cs2TiV3(PO6)3,2.0929
SCl2,2.093
Ba3Ta4TiO15,2.0931
LiVP2O7,2.0931
Er6Mg(GeS7)2,2.0932000000000004
VP2Cl7O4,2.0934
K4V4As6H12O31,2.0934
AgH9O5,2.0934
SrU(MoO4)4,2.0935
Li2SnP2O7,2.0935
SrCaCeGeO6,2.0936000000000003
InGaS3,2.0937
LiCo2OF3,2.0938
Sm2Se2O,2.0939
KICl2,2.094
Na2Ti2Si2H2O9,2.0940000000000003
Ho3GaS6,2.0941
Os6C17S2O17,2.0941
Na2MgGe2(SbO5)2,2.0941
MgFe2(NiO2)4,2.0942
Rb2Hg3(GeS4)2,2.0942
Cs3NdCr3O12,2.0942
AuI,2.0942
RbNa11(WN3)4,2.0942
Sr2Ti5(Bi2O9)2,2.0943
Te2MoWSe2,2.0943
MnH4(CO3)2,2.0943
Na6Mg4Nb2Si3(SO6)6,2.0943000000000005
NaFe(SO4)2,2.0944000000000003
TaFe(PbO3)2,2.0945
Na2HgS2,2.0945
Na2YNbSi2SO12,2.0947
H11CSO8F3,2.0947
Cs2S,2.0948
MgMo2(Cl4O)2,2.0948
Ba17Dy16Zn8Pt4O57,2.0949
K3Sc(HO)6,2.0949
GdBO3,2.095
BaCaPrBiO6,2.095
Na24Mg10Ta2Si9(SO8)9,2.095
Mg3Sc2N4,2.0951000000000004
LaAl2Si5N9O,2.0951999999999997
Cs2S,2.0952
TeWSe,2.0953
LiCoPHO5,2.0953
Te4MoW3Se4,2.0954
Sr(PrS2)2,2.0955
Li2VOF4,2.0956
Li2Co(CO3)2,2.0957000000000003
UVH3O7,2.0958
Na2La2PtO6,2.0958999999999994
Sr2FeWO6,2.0959
TiTl2O3,2.0959000000000003
Sn3(HO2)2,2.096
Na6Sc2In2Si3(SO8)3,2.096
Li3Cr2(PO4)3,2.096
Na2MgTiP2SO12,2.096
Na5TiAl3(PO4)6,2.0961000000000003
Y2SeO2,2.0962
Lu2Sb2O7,2.0964
Na3CoBSO7,2.0964
KNbCl6,2.0965000000000003
Y2Mg3N4,2.0965000000000003
Ca2Bi2O5,2.0966
LiMn5P3O13,2.0967
Dy2Mn(GeO3)4,2.0967
TaAgP4O13,2.0967
Ta3AgO8,2.0967
Na6Zr4In4Si5S7O48,2.0968
Ba2ZnS3,2.0968
Ho2HgO4,2.0969
Bi12PbO19,2.0969
Ba3MnV4O14,2.0969
Ta3NbV4O20,2.0969
MgFeAs2O7,2.0970000000000004
RbLiMg30O31,2.0972
NaSrBiWO6,2.0972000000000004
Na3MgTi3P5SO24,2.0973
Cs2MnV2(ClO3)2,2.0974
LiVF4,2.0974000000000004
Li3SbS4,2.0975
Na14Ti4In4Si9(SO16)3,2.0975
Ge2WO6,2.0976
ZnNi9O10,2.0976
NbInBi2O7,2.0976
Cs2HgI4,2.0977
Mo2C3S2(Cl5O)2,2.0977
Li2CoNi(PO4)2,2.0977
BaSrNdWO6,2.0977
Na2H2WO4,2.0977
LiFeP2O7,2.0977
K2NaSbI6,2.0979
Zn3Si3(BiO6)2,2.0979
SrTlPS4,2.0981
Na30Ta16Zn8Si27(SO16)9,2.0981
Na6U2Mo4O21,2.0982
Li2BSeO4,2.0982
HgTe2C2(NF8)2,2.0982000000000003
Cs5Ga3Se7,2.0982000000000003
CaTa2O6,2.0982000000000003
LiV2F7,2.0983
BaLaI5,2.0984
ReAgO4,2.0985
SiW12C16(NO10)4,2.0985
Li3AuS2,2.0985
La2MgI8,2.0986
Na2LaNb3Si2(PO6)4,2.0988
Li3SbS3,2.0988
Li2TiTeO6,2.0990999999999995
LiMnF4,2.0991
Na6MgO4,2.0991
PbCl4,2.0991
Hg3Te2SeO10,2.0992
BaSrInWO6,2.0993000000000004
KLaGeS4,2.0994999999999995
LaH2SNO7,2.0995
FeP2H6NO8,2.0996
As4W3O16,2.0997
KY(CO)8,2.0998
SrLa4TiAl4O15,2.1
Ba2LuMgBiO6,2.1
Li6Mn(OF)3,2.1
Li3V(PO4)2,2.1002
V2NiO6,2.1003
Na9Mg10Nb2P3(S5O24)3,2.1003000000000003
KAuS,2.1003000000000003
Rb2AlInBr6,2.1004
Cd2Ge7O16,2.1004
Lu(BiO2)3,2.1004000000000005
AlH16C2S2NO14,2.1005
HoSeF,2.1005000000000003
V6O5F19,2.1006
Na6Ta16Zn8Si15(S7O48)3,2.1006
Li2TeO4,2.1007
HoPtF7,2.1007
KHfMg14O15,2.1008
P3W2O13,2.1009
Ba2La6Mg4Ti3WO24,2.1009
RbH12AuC4(SO3)4,2.101
TaTl6VS8,2.1011
CoH12SO10,2.1011
Li3Si6NiO15,2.1011
Cs2KRhF6,2.1013
RbV(PO4)2,2.1013
Tm2Sb2O7,2.1013
Os4C12SO12,2.1016
Li3Fe2CoO6,2.1016
Nb9AsO25,2.1016
Cs2InAsF6,2.1016000000000004
Na2SnO2,2.101700000000001
Lu2MgS4,2.1019
BaSn2(HO2)2,2.102
LaSb(SBr)2,2.1022000000000003
P3W2O13,2.1023
Ti4Bi2O11,2.1023000000000005
CaCr2O4,2.1024000000000003
FeBi6P2(O7F)2,2.1025
RbNa2AuO2,2.1025
K4CaU3O12,2.1025
BaTb2NiO5,2.1026
Na9MgNb5(SiO4)9,2.1027
Hf2N2O,2.1027000000000005
CsTbZnSe3,2.1028
Ca7Sn3S13,2.1028999999999995
Ag3CS(NO2)3,2.103
GdBN2,2.1031
B10H18C2S,2.1031000000000004
Sr(NdS2)2,2.1032
Ca3MnCoO6,2.1034
BaYI5,2.1035
Li2CuAu,2.1035000000000004
AlBiTeCl4,2.1036
Rb2ZrFe(PO4)3,2.1037
VHO3,2.1038
Na2UP2O9,2.1038
BaLa2Ti3O10,2.1038
CaUO4,2.1038999999999994
SrSmCrSnO6,2.1038999999999994
NbTl3Se4,2.1041
NaAu(IO3)4,2.1042
U(OF)2,2.1045000000000003
Li3MnAsCO7,2.1046
Ba2LuB2ClO6,2.1046
Na3CuO2,2.1046
LiUAsO6,2.1046
LiVP2O7,2.1046000000000005
MgCr2O4,2.1046000000000005
TiSO5,2.1049
Ho14(PbS8)3,2.1049
Hg4BiSe2Cl5,2.105
Hg3PO4,2.105
Na3MnAsCO7,2.1050000000000004
Si6O13,2.1051
NaTiInP2SO12,2.1051
Na3InSi2SnSO12,2.1052000000000004
MgTa2(FeO4)2,2.1053
Ca2TaWO6,2.1053000000000006
Tm2MgSe4,2.1055
XeN2(OF4)2,2.1057
Sb8O11F2,2.1057
Li2VF6,2.1057
Sr2P7I,2.1057999999999995
Na6Nb6Ga2Si9(SO16)3,2.1058
BiClF8,2.1059
Li2V(SiO3)3,2.1059
TlMoPO6,2.106
CsRe2OsSe4Cl3,2.1060000000000003
Li2VCr(P2O7)2,2.1061
Na14Ca5Sn3(PO4)12,2.1061
Li2V2P4H6O17,2.1062
AlS2NCl4,2.1062000000000003
BaSrPrWO6,2.1063
Rb2TmAuCl6,2.1063
K17Fe5O16,2.1064
K2FeAgF6,2.1064
Na6Mn3(PO4)4,2.1064
Na14Ca4Ta4Si9(SO16)3,2.1064
Na3InSiGe(PO6)2,2.1065
Er3GaS6,2.1065
BiSbO3,2.1066000000000003
Co5Te4(BrO6)2,2.1066000000000003
Er2MgTl2(WO4)4,2.1066000000000003
BaSmFeSnO6,2.1069
P2H24PtC12(IN3)2,2.1069
Cs3AlI6,2.107
Sr3Li4(SiN3)2,2.107
Ca2Al2FeSi3HO13,2.1070999999999995
Sm4(SiS4)3,2.1071
CsMnH4(OF2)2,2.1071
Sr5La3Mn4(WO6)4,2.1072
Rb2NaBiI6,2.1072
LiCr(SiO3)2,2.1072999999999995
H2W2O7,2.1073
RbAu(IO3)4,2.1073000000000004
CaLaI5,2.1073000000000004
Cs2NaBiI6,2.1074
La3BeAlS7,2.1074
BaMo2(PO4)4,2.1075
MgV2(PO5)2,2.1076
Li6V(OF)3,2.1076
Co3C10ClO9,2.1077
Na6Zn3Si2Sn(SO6)4,2.1078
GeN3F7,2.1079
RbUCrNO9,2.1079
Hg6P4PbCl6,2.1079
Pm2MgS4,2.1079
Ca3BCNCl2,2.1079000000000003
CsP2H3N,2.1081
Ba2ZnGe2S6O,2.1081000000000003
MgV2O5,2.1084
V3(Bi3O8)2,2.1084
Na6B18Se17,2.1085000000000003
Rb3Tm2Cu4Br13,2.1087
H5IO6,2.1088
RbLiMn(BH4)4,2.1089
AlFeO3,2.1089
Na8Fe2O7,2.1091
NaCoO2,2.1092
Nb9PO25,2.1092
KCaCeNbO6,2.1093
LiVTeO5,2.1093
KSrLaSeO6,2.1093
MgFe2(OF)2,2.1096
MnNb2O6,2.1096
Pm2MgS4,2.1096000000000004
K3Fe2(PO4)3,2.1097
Dy14(PbS8)3,2.1098
BC2N,2.1099
K2Na(H2N)3,2.11
Ba3CaO4,2.11
Na3AlTe3,2.1101
Os5C15SO15,2.1101
NdO3,2.1102
K2NaBiI6,2.1103
CaMn2(H2O3)4,2.1103
KNdZrTiO6,2.1104000000000003
Ba7MnFe6F34,2.1105
CSN2,2.1109
SrCaSmBiO6,2.1109000000000004
NaVP2O7,2.111
Te2MoW3(Se2S)2,2.1111000000000004
Zn3H24C12(Br4O3)2,2.1113
Pb3(NO4)2,2.1114
As2Se3(NF6)2,2.1114
K5YO4,2.1115
LiVSiO4,2.1115
Er2PbS4,2.1115000000000004
Sr4S3O,2.1115000000000004
Na12Ca5Nb(PO4)9,2.1116
Ta3AgO8,2.1117
RbNaMg30O31,2.1117
KAuF6,2.1117
Re6H12Pb3C2S2(N2O13)2,2.1118
Ba2FeCoClF7,2.1118
V2Fe4Mo3O20,2.1118
BaMn9V6(HO13)2,2.1118
MnAsH3O5,2.1119
Li2VF6,2.1121
Na3GaSi3Ge3(SO8)3,2.1122
Na3Sc2(WO4)3,2.1122000000000005
K6Na2MnH24(WO6)6,2.1123000000000003
BaUPO6F,2.1124
Na3LaTi3Si3(SO8)3,2.1124
Li5Fe2P5O18,2.1125
MgVFe(P2O7)2,2.1125
Rb4PbO3,2.1126
NaFe(SO4)2,2.1127
MgAgF3,2.1127
Cs3FeO3,2.1129
H6PbCBr3N,2.1129
Tm2SeO2,2.1129
FeH10S2NO11,2.1129
Ca3Co2(GeO4)3,2.1129999999999995
Na4ScNb3Si5SO24,2.1131
TiFe2Bi2PbO9,2.1131
IF3,2.1132
ZrHg4(PCl3)2,2.1134
Na3FeO3,2.1134000000000004
H19PbC15S2N3O5,2.1135
Na15Nb8Zn4Si9(PO8)9,2.1135
SrMo2(PO4)4,2.1135
Na4Mg(BiO3)2,2.1136000000000004
Ba2CeSnO6,2.1137
Lu2MoO6,2.1137
Dy14Ti10O41,2.1137
NaCr12Si8BrO28,2.1137999999999995
GaFe2BO5,2.1137999999999995
Ca5Mn4O9,2.1137999999999995
Ba3Li2Mo4P6(ClO14)2,2.1138
ZnGa4S7,2.1138000000000003
Cs4K3U3Si4O20F,2.1139
Li2V4P4O15,2.114
Tm2PbS4,2.1140000000000003
BeCrO4,2.1141
CCl,2.1141
Sr2SmBiO6,2.1141000000000005
Sr3TbRhO6,2.1142
Fe2H54N18Cl4O,2.1142
Fe2P3C8N3(ClO2)4,2.1143
K2InSbF6,2.1143
ErAgS2,2.1143
Li9Mn2AlO8,2.1143
BaUO4,2.1144
Ba6Li2Ti16O39,2.1144
Tb2CrSbO7,2.1144
Li4TiNi5(PO4)6,2.1145
NaSrPrSeO6,2.1145
LiV(GeO3)2,2.1146
Cs2PtCl6,2.1146
Ba7B4Se13,2.1147
CaCoAs2O7,2.1148
Na3YSiSn(PO6)2,2.1148
K2LaP2S7,2.1148
Li2VF6,2.1149
NaCoO2,2.1151
SrCaLaBiO6,2.1151
Na8MgTi3Si5SO24,2.1152
Tl2V3O8,2.1152
Mg2Sn3O8,2.1152999999999995
NdHO,2.1152999999999995
P2H19C6I2NCl4,2.1153
Ba3Co2(NO2)12,2.1153
TaP4(SCl)5,2.1154
Tl8Ge5O14,2.1155
La2MgMnZnO6,2.1156
Hf(MoO4)2,2.1156
Sr2MgUO6,2.1157
ReSi2(PO5)3,2.1158
Ba2U(PO5)2,2.1158
Li2VP3O10,2.1159
Hf2N2O,2.1159
Zn2SiO4,2.1159000000000003
Bi3BO6,2.1160000000000005
BaTa2O6,2.1161000000000003
LiVB2O5,2.1161000000000003
Rb4Ge(PS3)4,2.1162
K2UCr(IO6)2,2.1162
K2TmAuCl6,2.1163000000000003
Tb2YbS4,2.1164
MgVCl2O,2.1164
Sr2GdWO6,2.1165
Sb2XeClF11,2.1165000000000003
Ba2AlInO5,2.1165000000000003
Na2SrNd2Ti5O15,2.1166
LiCoBO3,2.1166
Na7Y3NbSi3(PO8)3,2.1166
Cs2Tm2Mg(WO4)4,2.1167
MgVP2O7,2.1167
Cr2(Bi2O5)3,2.1167
Na6Sc2Nb2Si5SO24,2.1168000000000005
Na5In3Si3Sn(SO8)3,2.1169
LiAg(CO2)2,2.117
B2(CN2)3,2.117
LiCo2OF3,2.117
La2ZnWO6,2.117
Rb2U3P6O25,2.1171
Na30Ca4Nb20Si33(SO48)3,2.1171999999999995
KAu(IO3)4,2.1171999999999995
SrFe2(SeO3)4,2.1172
Na6Y2In2Si3(SO8)3,2.1172
LiLa5Ti8O24,2.1172000000000004
CaZnF2,2.1173
U2H14S2O19,2.1173
Cs3InO3,2.1174
NF,2.1174
Sn2(SO4)3,2.1174
Mg2NF,2.1175999999999995
AgNO3,2.1176
K2CeF6,2.1176
KUCrNO9,2.1177
Na6Ca2Nb4Si3(PO6)6,2.1178
LiVSiO4,2.1180000000000003
Na3MnBSO7,2.1180000000000003
YMgAg(WO4)2,2.1181
MgMnV4O12,2.1181
CaLaCrSnO6,2.1181
KAu(IO3)4,2.1181
NaNd3Ti2(SbO7)2,2.1182
YMgMo(WO4)2,2.1182000000000003
Fe3Ni2Sb(PO4)6,2.1182000000000007
Na12NbZn5(PO4)9,2.1183
Sr9La5I33,2.1183
SrSm2Nb2O9,2.1183
MgTi3P2(SO6)4,2.1185
Li8VO5F,2.1185
Si(SnS2)2,2.1185000000000005
Na(WO3)8,2.1186
LiVF4,2.1186
NaFe(MoO4)2,2.1186
Na2Ta4Ga4Si5S7O48,2.1186000000000003
K3MoHS4O,2.1188
Na2H4Pt,2.1188
Rb4NaW2N5O,2.1188
SmFeH8C6(N3O2)2,2.1192
LiFe(CO3)2,2.1192
Yb2Al2O5,2.1192
K2Pt(NO2)4,2.1194
Rb6Sn2S7,2.1194
H4NF3,2.1194
NaScTiP2SO12,2.1194
Cs2Li4UO6,2.1196
Li6Ti3P8O29,2.1196
KNb2Cl11,2.1197
Ba7Pb17O24,2.1197000000000004
BaCaO2,2.1198
Na2YTi(PO4)3,2.1198
LiVPH2O5,2.1198
Fe4Pb(CO)16,2.1198
InCl,2.12
K2SrV3O9,2.12
ZnGeO3,2.1201
La2Ti2SiS5O24,2.1202
NbCl5,2.1202
NaTi2In2P3(SO8)3,2.1203
BaMg6VO8,2.1203000000000003
SrMg6MnO8,1.8401000000000003
K3SbO4,1.8402
Sr8Mg3Fe(MoO6)4,1.8403
K2OsNCl5,1.8403
Ag2Pd(NO2)4,1.8404
MgV2(OF3)2,1.8404
BiSeCl,1.8404000000000005
Rb5GaO4,1.8405
MgGe4(MoO6)2,1.8405
Sm3SiAgS7,1.8405000000000005
SnH3S4N4Cl5O,1.8407
CrH12N3O8,1.8408
Ce2ZrO6,1.8408000000000009
SrLiLaTi3O9,1.8409
LiV3O8,1.8409
Mg21FeSi12(HO16)3,1.841
Li2VF6,1.8411
Fe4Ni3(PO4)6,1.8411000000000004
Sr(LuS2)2,1.8411000000000004
SrLiGaN2,1.8413
DyMoBrO4,1.8414
Li2MnF5,1.8414
LiBi3O5,1.8414
ZnCd3GeS6,1.8416
MnPtF6,1.8416
Er2CoTe2(SO7)2,1.8416
CsRe3(S2Br)2,1.8417
KV2CrO7,1.8417
CoH2SeO4,1.8418
UTl2(TeO4)2,1.8419000000000003
Ca3PCl3,1.8419000000000003
LiV2OF5,1.842
Na3Nb5ZnSi6(SO12)3,1.842
Na5Sc3TiSi3(SO8)3,1.842
La4(GeS4)3,1.8420000000000003
Ba4NaGe3S10Cl,1.8421
Y5Be6Fe3(SiO5)6,1.8422
Sr2LiReO6,1.8424
UTeO5,1.8424000000000005
CoTe2O5,1.8424000000000005
Dy5AgS8,1.8424999999999996
Cs2NaCr(CN)6,1.8425
CaFe3Si2O9,1.8425
LiMn(CO3)2,1.8426
LiNiBO3,1.8427999999999995
Na9Mg11Ta(SO4)18,1.8429
Ba3LaMgIn(WO6)2,1.843
Te2MoW3(Se2S)2,1.8431000000000008
LiMn(PO3)3,1.8432
Na4Ca2Ga2SiS5O24,1.8432
Gd2MgTl2(WO4)4,1.8432
MgFe3(PO4)3,1.8432
Dy2Sb2O7,1.8432000000000004
SiC,1.8432999999999995
Ca6Te3N2,1.8432999999999995
Ba4In2Te2Se5,1.8433
NaLuTi2O6,1.8433
Ba2Ti4Cr2O13,1.8433
ReH3CSO6,1.8434
NaYSe2,1.8434
Sr(TmS2)2,1.8435
Ba5Pt2O9,1.8435999999999997
Cd3S3O20,1.8436
Hg3AsBrO4,1.8436
VCdAgO4,1.8437
MgFe3(PO4)3,1.8437
MgVCrP2(O4F)2,1.8437
CsLiMg30O31,1.8437
Na2LiRhF6,1.8438
H12Pd(N5O4)2,1.8438
Sr15Ti23O61,1.8439
P3(WO6)2,1.8439
Ca3AsCl3,1.8439
Ba2MgMn2O6,1.8439
LiV4P7O24,1.844
Sr6Mg(Te4O11)2,1.8441
Sr2H4Pd,1.8442
V(SiO3)2,1.8443
Cs3BAsP,1.8444
Fe4H14O13,1.8444
CaV2(PO5)2,1.8445
Na2La2Ta2Si3(SO8)3,1.8446
Na3Sr14Nd3Ti20O60,1.8446
Y2AlN3,1.8447
Na4Mg3SiSnS5O24,1.8447
TiFe2O5,1.8448
FeAgP2O7,1.8448
LiCuF2,1.8448
LiVF4,1.8449
Li2MnF5,1.8449
Fe7(OF3)3,1.845
Sr8Ga16S31,1.845
Na3BP2,1.8451
Li4NbCr(WO6)2,1.8451
Nd2NiPtO6,1.8452
Ag6Mo2ClO7F3,1.8453
TiZn2O4,1.8453
P,1.8454
Li6CrNiP2(CO7)2,1.8454999999999997
AgAsS16N16(O4F3)2,1.8455
Sr2BrN,1.8455
CrSbO4,1.8455000000000004
K3IrCl6,1.846
Na3MnO4,1.8461
Li5Cu(PO4)2,1.8462
Hg2H12C4I5N,1.8462
Ba2Ti6N2O11,1.8464
Ba2UCdO6,1.8464
Na3Zn2(WO4)3,1.8465
Sn13(O5F3)2,1.8468
Ca(MoO2)2,1.8468
Pb5(SI3)2,1.8469
MgZn2Fe2(SiO5)2,1.847
PrCrO3,1.8470000000000004
CdSeO4,1.8471
Na3TlO2,1.8471
S4N5Cl,1.8471
CoTeMoO6,1.8473
LiSb2(PO4)3,1.8474
Li4CrFe3O8,1.8474000000000004
Na3InSi3Sn3(SO8)3,1.8475
Na5La2Ga2P5SO24,1.8477
Rb17Fe5O16,1.8478
Na6MgTi3Si4(SO12)2,1.8478
NbFeO4,1.8479999999999996
Na2FeH4(SO5)2,1.8481
Mo(PO3)4,1.8481
Mg3BN3,1.8481000000000003
TlH6(NO4)3,1.8483
Na6Ta2Al6Si5S7O48,1.8484
Sm2SiTeO4,1.8484
V3CoO8,1.8486
SmScS3,1.8487000000000005
SiC,1.8487999999999989
V2OF5,1.8488
TlV2I3O13,1.8488
BaSrLaVO6,1.8488
Li7BiO6,1.8489
Y2Cr3O12,1.8489
Sr2Mg(AgO2)2,1.849
KYMg14O16,1.849
K4US3O14,1.8491
AgN3O4,1.8492
Pr2MgMn2(GeO5)2,1.8494
BaMgTe2O7,1.8494
Nb2Co4O9,1.8495000000000004
La2Ce2O7,1.8497000000000003
LiMnP3HO10,1.8498
K3BSb4O13,1.8499
In2GaBiS6,1.8499000000000003
Mg14CoBO16,1.8499000000000008
NbZn2N3,1.8501
Cs5Na(W2N5)2,1.8501
Na2Ta4In4Si5S7O48,1.8501
Zn2Fe2O5,1.8502
C(NO)2,1.8503
Ca3Ge3(MoO6)2,1.8503000000000005
NaTi8(Bi3O10)3,1.8506
K2MgFe4P6(O4F3)4,1.8506
Li3V3(PO4)4,1.8507
Na6Mg3Si2Sn(SO6)4,1.8509
Fe(TeO3)2,1.851
ZnCrO4,1.8511
Li2VFe(P2O7)2,1.8512
Na3LaTi2Nb2O12,1.8512
Rb2U3(TeO7)2,1.8513
MgInNi2SbO6,1.8513
Mg30FeSiO32,1.851399999999999
Na2Ca4ZrNbSi4O17F,1.8513999999999995
KBiO2,1.8514
BaSrMg30O32,1.8515000000000008
Ca2UO5,1.8516
Na2Y6Ta2Si3(S3O16)3,1.8518
K2FePCO7,1.8518
Mo2P2O11,1.8519
Cs2PdCl4,1.852
CoSeO3,1.852
Ba2MgCoWO6,1.852
Zn2BrN,1.8521
Na5Ca2Ti2P5SO24,1.8521
ICl,1.8522
RbNdTiNbO6F,1.8523
Cs4V2S4O3,1.8523
TiOF2,1.8523
Na2CeO3,1.8525
LaTaZnCrO6,1.8525
Fe4OF7,1.8526
RbCrH8(NO4)2,1.8527
MgP4WO12,1.8527
Si2AgN3,1.8527999999999996
MnV2O6,1.8528
La2Si2O7,1.8528999999999995
LiFe4(BO3)4,1.8531
Li2V3F8,1.8532
SiP4PdPbO14,1.8533
Na2Ta4Al4Si5S7O48,1.8533
Li2Cr3WO8,1.8534
K2O,1.8534
Na2MgW4O13,1.8534
K2NdNb5O15,1.8534
LiCo2OF3,1.8536
Ba2SmBiO6,1.8538
HW2C9NO10,1.8539
AgNO3,1.8539
Li3Fe2(SiO4)2,1.854
Mg4Ni5(TeO6)3,1.854
Na10Ti4Al4Si7S5O48,1.854
SnHg2(SBr)2,1.8541
Cs8In2O7,1.8541
K3Nb2Cu3S8,1.8542
MgP2W2O9,1.8542000000000003
H3PbCI3NF3,1.8543
Rb8Mg(FeO4)2,1.8543
Na8TiZn3Si3(SO8)3,1.8543
Mg30MnSnO32,1.8544
CoH6C2S2N2O3,1.8544
Na8Gd2O7,1.8545000000000005
Ca3SbI3,1.8546
KFe2H(SeO3)4,1.8546
Na6Al4Si5Sn4S7O48,1.8546000000000005
Si2H2O3,1.8548
MgZn4(Se2O5)4,1.8549
AsXeF11,1.8550000000000004
Y2W2O7,1.8551
CaLa2Fe2(TeO6)2,1.8552
Li4Nb2Fe3O10,1.8553
RbCuC2,1.8553
Cd4SF6,1.8553
Nb3In(PO4)6,1.8554
SbClO,1.8554000000000004
LiMn2OF3,1.8555
Mo(SeCl6)2,1.8555
Mg6CdCoO8,1.8557
KHgH2I3O,1.8557
CuCSN,1.8558
Na5CaTi3SiP5O24,1.8558
LaMoBrO4,1.8558000000000003
Li3V2(PO4)3,1.8559
BaSnHgS4,1.8559
NaFeSnO4,1.8559
BaSrDyBiO6,1.856
V3CdO7,1.8561
BaNb4Bi4PbO18,1.8562
TbMoBrO4,1.8563
V3OF11,1.8563
H4I3N,1.8564
Li3La5Ti6Nb2O26,1.8564
HoMoBrO4,1.8564
Li2ScCuCl6,1.8566
K2PtCl6,1.8566
Zn4B6SeO12,1.8571
CoSO4,1.8571
Li4Mn3P4(HO8)2,1.8572
Li3MnO2F,1.8572
NaSr2NdTi4O12,1.8572
InPb2I5,1.8572000000000009
MgMoP2O7,1.8573000000000004
Na3Nb7P4O29,1.8574
PWO5,1.8574
Na42Ca8Nb16Si33(SO48)3,1.8574
BaCaLaBiO6,1.8574
PbCN2,1.8575
MnH2(SeO4)2,1.8575
LaTiAlPbO6,1.8576000000000008
LiCrP2O7,1.8577
Ba(GaSe2)2,1.8578
Cs2MnV2(BrO3)2,1.8578
Ca2AlPbOF8,1.8579
MgVCrO4,1.8579000000000003
Mg4Te3S,1.858
Zn(SbO2)4,1.8582
Ba2NaSr2(SbO4)3,1.8583
Sr2VAs2O9,1.8583
K2H2IrCl5O,1.8583000000000005
CeTi2O6,1.8584
UH12S2O15,1.8584
SrGa12O19,1.8584
Na2Sb4O11,1.8584000000000005
Na2SrLa2Ti5O15,1.8584000000000005
Ga2BiSe4,1.8585
MgFe4O5F3,1.8585
Na4MgTi2(GeO5)2,1.8586
K2Sb4O11,1.8586
ZrHg3(SBr3)2,1.8586
LiVPCO7,1.8586
SbOF,1.858700000000001
TlCr2FeO8,1.8589
V3H4NO8,1.8589
Na6Mg8Ta16Si15(S7O48)3,1.859
Na2SnBPO7,1.8592
Li5Fe5Si7O24,1.8592
Na2CaTi3P4(SO12)2,1.8592
NdScS3,1.8593
Sr4SnPbO8,1.8593
BaSnHgS4,1.8593
Cs2PbO2,1.8593
BaU2O7,1.8593
Cs2ScAuF6,1.8594
Ta2MnO6,1.8594
Cs2Sn3(SbS5)2,1.8595
Mn2Ru(CN)6,1.8596
Te2MoWSe2,1.8596000000000004
Zn2CrSbO6,1.8597
SrMg30VO32,1.8598
BaMg30CO32,1.8598
MgV2Zn2(SiO5)2,1.8600000000000003
Li3Cr3(PO4)4,1.8602
RuS3Cl8,1.8602
Fe6OF11,1.8602
Na2Y2Nb6Si7S5O48,1.8603
Na8Ca2Nb2Si5SO24,1.8603
CaFe2P2O9,1.8605
MgV2In2O8,1.8606
Na2ThTi3O9,1.8606
LiAlSi2O7,1.8606
Na2Y4Ta4Si5S7O48,1.8606
CaVFe(P2O7)2,1.8609
Nb9PO25,1.8609
TeH18(Br3O4)2,1.861
AuCN,1.861
MoPNO7,1.8611
K2DyNb5O15,1.8612
MgTl4V4(TeO5)4,1.8613
Na3CoO3,1.8614
KCuS,1.8615
NiH6(NO3)2,1.8616
BaSrYWO6,1.8616999999999997
Sc5(GeN3)3,1.8617
Mg30VSnO32,1.8617
MgFe3(OF)3,1.8618
NaTiFeO4,1.8618000000000008
Na2InGaF6,1.8619
Tl2CuI3,1.8619000000000003
Sr2NdBiO6,1.862
V3(PO4)2,1.8621
ReCl3O2,1.8621
Na3Ca3SnPS5O24,1.8622
Rb2TaAgS4,1.8622
K2LiNb6(PO8)3,1.8622
Ba2TaFeO6,1.8623
Ba4AgAuO6,1.8623000000000005
Mg14CoBO16,1.8624
TlSnI3,1.8624
Ta2MnO6,1.8626
CdHOF,1.8626
Tl3Cd2I7,1.8626000000000005
CsTaO3,1.8627
MgAg4Te8(MoO12)2,1.8628
Na7UH4S4ClO20,1.8628
NaZnSnP(SO6)2,1.8629
Fe2(TeO3)3,1.8629999999999995
Tm3Fe5O12,1.863
SrLiTi4CrO11,1.863
Cs2YAuBr6,1.863
AsIrS,1.8630000000000004
RbFe(SeO4)2,1.8633
Rb2LaNb5O15,1.8633
SrTi2O5,1.8634
FeTe2BrO5,1.8634
Zn4B2O7,1.8634
Rb2NaCr(CN)6,1.8634
NaDySe2,1.8635
Li7BiO6,1.8635
Li2VSiCO7,1.8635
Cs2U3(TeO7)2,1.8635
CsMnO4,1.8635
SrLiH3,1.8636
LiV2OF7,1.8637
NaFeP2(O3F)2,1.8637
ZnH8C2I2(N2O)2,1.8638
Dy10Ti6O27,1.8638
RbV2CrO7,1.8638
Al4Co13Si2(SbO14)2,1.8638000000000003
NaSr2LaTi4O12,1.8639
K2SmNb5O15,1.8639
KFe3H6(SO7)2,1.8639
KMg14AlO16,1.8639
BaTeH3(S2O3)2,1.864
Na2Nb6Al2Si7S5O48,1.864
La2SbS5Br,1.8641
NaLiCeWO6,1.8641
Co2As2O7,1.8642
Be(FeO2)2,1.8642
VF4,1.8642
NaSr3LaTi5O15,1.8642000000000003
Sr14La6Mg3Ti17O60,1.8643
K2HoNb5O15,1.8644000000000005
Li2Bi2(SO4)3,1.8644000000000005
LiFe2O2F3,1.8645
Na2TiHgF6,1.8645
Fe2Pb(SeO3)4,1.8645
MgFeAsO5,1.8646
Na2ScNb3Si4(SO12)2,1.8646
BaNaSmSeO6,1.8646000000000005
Na5La3Si3Sn(SO8)3,1.8647
MgFePO5,1.8649
NaNbO3,1.865
Sr3LaMn2(WO6)2,1.865
SeS2(NO)2,1.8651
Y2TeS2,1.8652
Te2Mo3WSe6,1.8652
Ba4Ti3O10,1.8652999999999995
Li2AgF3,1.8653
TiCo(PO4)2,1.8653
MgV2(OF3)2,1.8653
PIrS,1.8653999999999995
SbPbBrO2,1.8655
Na7NbZn3(PO4)6,1.8656
Na2Y3Nb5(PO4)12,1.8657
SbI(ClF3)2,1.8658
Sr5Ti8O21,1.8658
H5IO6,1.8659
V2CoO6,1.866
Na2UO4,1.8660000000000003
MgZn2(CoO3)2,1.8660999999999996
Mn3Ga2(GeO4)3,1.8661
CsK2PdF5,1.8661
Cs2S5,1.8662
NaU4V3O20,1.8662
Sr3Ca(PbO4)2,1.8662
Tl3B3S10,1.8663000000000003
NaMg30BO31,1.8663000000000007
Rb2TlInBr6,1.8665
LiBi3(IO2)2,1.8668
Ni3(AsO4)2,1.8668
InHO2,1.8668000000000005
Na4Mn3BO8,1.8669
LiVF4,1.8669
K2TbNb5O15,1.867
MgFe3PO7,1.8671
AsAuO4,1.8671
BiF5,1.8671
Na8Al6Si6O25,1.8673
LiAuF6,1.8673
Te6MoW3Se2,1.8673
MgCo6(OF5)2,1.8674
Li3La5Ti6Nb2O26,1.8675
GaTeI7,1.8676
SrCo2Te3(ClO4)2,1.8677
Na5Ti3ZnSiP5O24,1.8677
MgFeBO4,1.8677
U3(HO5)2,1.8678
Na3NbZnSi(PO6)2,1.8679
SbO2,1.8679000000000008
Ca8Al3(FeO4)5,1.8679999999999997
Sr4LaCl11,1.8681
LiLa5Ti8O24,1.8682
TaAl(WO4)2,1.8682
LiV(SO4)2,1.8683
ZnFeAsO5,1.8683
Nd6Cd(SiS7)2,1.8684000000000005
TmAu2F9,1.8684000000000005
Na2La3Nb5(PO4)12,1.8685
SiGeN2,1.8685
Na2Sc2Nb6Si7S5O48,1.8685
SbPCl8O,1.8685
InGaSnO5,1.8685
BaSrDyWO6,1.8686
Ta2H15N6Cl7,1.8687
Tb2CdS4,1.8688
Ba2NaReO6,1.8688
Hg3Se3O10,1.8689
FeH10N3O14,1.8689
Sr2ZrTiO6,1.8689
KMgNi2H3(SeO5)2,1.869
TaFeO4,1.8690999999999995
Na3YSi2GeSO12,1.8693
La3CuSnS7,1.8694
NaZrCu3Se4,1.8694
Fe4H14O13,1.8694
Na10Mg4Ta4Si7S5O48,1.8695
Li2Ti3CoO8,1.8695
BaLiCeSbO6,1.8695
Ho2MnNiO6,1.8696
K4U3(AsO8)2,1.8696
Li3V3(PO4)4,1.8697
Cd(NO4)2,1.8697
Pr5(SiN3)3,1.8698999999999997
Na10Ca3Sn5(PO4)12,1.8699