formula,band_gap (MP)
NO2,0.9916999999999998
CaMn2O4,0.9918
LiAl2BrO6,0.9918
Ca3InP3,0.9918000000000003
Ba4Ti3PtO12,0.9918000000000003
NaGa3Te5,0.9918999999999998
Li7Mn5O12,0.9919000000000002
Sr2MgZrMnO6,0.992
BaSr7Ti7MnO24,0.9921999999999996
BaCa(BiO2)4,0.9921999999999996
CeSe2,0.9922
Li9Mn2Co5O16,0.9925000000000002
Dy3CuSnSe7,0.9926000000000004
La7SmMn4(FeO5)4,0.9926000000000004
La3Ti2N3O4,0.9928000000000008
TcOF4,0.9929
Zn(InSe2)2,0.9929
V3(O2F)2,0.993
NdAl11O18,0.9930000000000004
CaAgBiO5,0.9933
Na2Mg(CoO2)2,0.9933
Li4Mn3O7,0.9933
NbV3(PO4)6,0.9933
MgV6O5F19,0.9933
Nb(SeCl)2,0.9933999999999998
Li9Mn7O16,0.9934000000000004
Cs2RhCl5O,0.9935
Na4Mg(CoO3)2,0.9935000000000004
Te3Mo2Se,0.9935999999999998
Fe4As2O11,0.9936000000000004
KPAuSe3,0.9936999999999998
MnTl2H2OF5,0.9937
Nd2CdSe4,0.9937000000000004
K2PtC2,0.9937999999999998
SrMnTeO6,0.9939
Li4MnCo2O7,0.9939999999999998
LiAg3O2,0.994
Li4CoO4,0.9941
MnAgO4,0.9941
Li3V2P4(HO8)2,0.9941999999999998
LiMn2F9,0.9941999999999998
Sr2LuUO6,0.9942000000000002
MoW(SeS)2,0.9943
ZrSnS3,0.9944000000000002
LiAlPdF6,0.9945
LiCrPO4,0.9945
SbTe2F6,0.9945
Mn(CO3)2,0.9945000000000002
LiV4OF11,0.9946
CrHO2,0.9946000000000002
Na6Zn2Si5Sn6S7O48,0.9946000000000002
Sc4Te3N2,0.9947
Li3V3P8O29,0.9948
ScCu(WO4)2,0.9948999999999996
Mn3Zn(FeO2)8,0.9949999999999996
CaMnF5,0.995
MgFe10O9F11,0.9951
TaIn3O7,0.9951999999999996
Sr2TiMnO6,0.9951999999999996
Li4Ti3(CoO4)3,0.9952
Rb2MnH2OF5,0.9953
Li5MnCr3O8,0.9953000000000004
Co5SnO12,0.9953999999999998
NaPO6,0.9954
FePO4,0.9954999999999998
ZrCrCu2(PO4)3,0.9956
Te2MoWSeS,0.9956
CeSe2,0.9956
Na6Ca6SiSn2S11O48,0.9956000000000004
MoW(SeS)2,0.9956999999999998
Li32Mn3Cr13O48,0.9956999999999998
Li5V3P8O29,0.9957
Na6Ta8Zn16Si3(S11O48)3,0.9957
MgV8O16,0.9959999999999998
CeSe2,0.996
Ni2Hg2OF6,0.996
Ta4Mn11O21,0.9960000000000004
Sr2V(PO4)3,0.9960999999999998
Sr3Sb4S9,0.9962
CeSe2,0.9962
MgCr2O4,0.9962
Li2Cr3NiO8,0.9962000000000002
Ti2N2O,0.9964000000000004
MnP2O7,0.9965
Tm2Mn2O7,0.9966
MgBi2(IO)8,0.9967
LiLa4Ni3WO12,0.9969
MgFe6(OF)6,0.997
Sr2Cu(HO)6,0.9971
Li9V6(P8O29)2,0.9971
La2CoNiO6,0.9971999999999994
Cu3Ag3(PS4)2,0.9971999999999994
LiMnPO5,0.9972
KCa4Si8H16O29,0.9972
TiCo3O8,0.9972
BaZrN2,0.9972000000000004
GaBi2N3,0.9973
Sr2In2O5,0.9973
K4Sn9,0.9973999999999994
LiCoP2O7,0.9974
Sr3(CoO3)2,0.9976000000000004
MgMn4(Si4O11)2,0.9977
Li24MnCr11O36,0.9977
Mn(FeO2)2,0.9977000000000004
Fe2Ni3P6WO24,0.9977999999999998
MoH2(CO2)2,0.9979
NaBeSb,0.9980000000000002
CaV4(NiO6)2,0.9981
Li3V3P8O29,0.9981
Cu3SbS3,0.9982999999999996
Be3Cd4Si3SO12,0.9984000000000002
Al5(FeO4)3,0.9984000000000002
Si,0.9985
CsTlBr3,0.9985
CeSe2,0.9985
NaH4IO7,0.9986
Sn2GeTe3,0.9986999999999996
Rb3NaNb2O3F10,0.9987
Y2Pb2O7,0.9987
K2AsAuS4,0.9988
Li2Cr2O9,0.9988
AsNO4,0.9988
Cs8Mg(Sn2O3)4,0.9988
CeSe2,0.9989
Na4Al3Ge3O13,0.9989
KTaWO7,0.999
Mn(CO3)2,0.999
CdHg2SeO6,0.999
Cs4Na2MgV2O8,0.999
Ge19(PI)4,0.9991
MnP2O7,0.9992
La2Te3,0.9992
CsNb(CuTe2)2,0.9992999999999994
MgFe12(OF)12,0.9993
Li5Mn3O8,0.9993
K2VAgSe4,0.9994
Ba3SrMgNb2O9,0.9994
Li2Ti3CoO8,0.9994999999999994
Mg(CrS2)2,0.9995000000000004
Fe2SiO4,0.9995000000000004
Tb6CdS10,0.9996
Na4Al2Si6ClO24,0.9998
Ca3V2O7,0.9998000000000004
LiRuF6,0.9999
Cu,1.0
Li4V3P8O29,1.0
Li4Ti3Mn4Cr2O18,1.0001000000000002
Ba3(InN2)2,1.0001999999999995
Na2Ca5Sn3(SO4)12,1.0002
CaMnO2,1.0003000000000002
Li2V2(PO4)3,1.0004
Ca(FeO2)2,1.0006000000000004
MgV2O4,1.0008
Ba2MgMn2CuF14,1.0008
CeSe2,1.0008
NaNi3P4H8NO16,1.0008000000000004
LiCoH8(SO6)2,1.0009
V(HgO2)2,1.001
Ga6Te10Pb,1.0010000000000003
CaSi3SnO11,1.0011
MgV5(MoO5)5,1.0012000000000003
CaNiBiO5,1.0013
Nb10Zn2Si9(SO8)9,1.0013
BaB2H10O9,1.0013
Li2CuAsO4,1.0013
LiMnVP2(HO5)2,1.0013
Te7RuI6,1.0013999999999994
K2VCuSe4,1.0014
LaCoO3,1.0014000000000003
Li3V3P8O29,1.0015
Na2La2Nb2Si3(SO8)3,1.0015
Li3MnCoO5,1.0015
K2ReF8,1.0016
BaTbAgS3,1.0016000000000005
KMg3(SiO3)4,1.0016000000000005
Ca(BiO2)2,1.0016999999999996
K2LiS2(O2F)2,1.0016999999999998
CsTe,1.0019
V4Ag2O11,1.0019000000000002
Sm3Mg2CrS8,1.0020000000000002
Cs4Re6Se13,1.0021999999999998
Eu(AlSe2)2,1.0021999999999998
V2S3O14,1.0022
Na4Ge2Te5,1.0023
Li7Mn5O12,1.0023
K2SbAu,1.0023000000000002
Te4MoW,1.0023000000000004
Cd2Ni2C8N12O,1.0023999999999995
Li5V3(CoO5)2,1.0024000000000002
Ba7ZrN6,1.0025
Hg3ClO,1.0025
AgTe3I,1.0025
BaLaTaMnO6,1.0025000000000004
Li5Mn2Fe3O10,1.0026999999999997
CeSe2,1.0027
Li9Mn2Co5O16,1.0027999999999997
Sm5CuSe8,1.0027999999999997
Li2MnV(PO4)3,1.0027999999999997
CdHgAsBr,1.0028
WN2,1.0029
Gd(LuS2)3,1.0029
AsOsSe,1.0029000000000003
Li3Mn2O5,1.0029000000000003
Gd4Si2Se3O7,1.0029000000000003
Li2MnO3,1.003
Nd4Mo31O56,1.003
Li3V3P8O29,1.003
Ca(CoO2)2,1.0030000000000006
Na2MnO3,1.0031
Rb2CoPb(NO2)6,1.0031
Li2MnPO5,1.0031000000000003
Li5Mn2CoO8,1.0031999999999996
LiCo2C2O7,1.0033
MgV3O6,1.0033
KHfSnBiO6,1.0033
CeSe2,1.0033
LiFeSiO4,1.0034
Rb2PtSe2,1.0034
CeSe2,1.0034
Ti2N2O,1.0034
MgCoO2,1.0034
V4O7,1.0034999999999998
H11O8,1.0035
Li7V3P8O29,1.0035
MgV5CoO12,1.0036
K2SiAs2,1.0036
Ag2CN2,1.0037
MnCrO4,1.0037000000000005
Gd2HfS5,1.0037000000000005
FeSbO4,1.0037000000000005
H2W2O7,1.0037999999999998
Li4Mn2V5O12,1.0038
YMg6VO8,1.0038
Ba7HfN6,1.0038
Li3Mn2O5,1.0038
LiMnF4,1.0038
Li5V3P8O29,1.0039
SbSe9Cl7,1.0039
Li24MnCr11O36,1.004
Ba2GaSe4,1.0042
Cs3Cr2I9,1.0042
HoV2ZnO6,1.0043999999999995
Ba2CaTi2CuF14,1.0044
Li4MnCo2O7,1.0044999999999995
SiSnN2,1.0046
Cs2TlAsI6,1.0046000000000002
KTbRuC6(N3O2)2,1.0046000000000002
Sr2MgZnWO6,1.0046999999999997
Ga3NO3,1.0046999999999997
Rb2Na4Co2O5,1.0047
Sr3TaCoO7,1.0049
Ba5Cr3O12F,1.0051
SnPS3,1.0053000000000003
Ca(SbO2)2,1.0053999999999998
MgTi2Si2(Ag2O5)2,1.0054000000000003
Sr2SnS5,1.0054999999999996
Zn3TeO6,1.0055999999999998
Sr2TiMnO5,1.0056000000000005
Li2VO2F,1.0057
PdSe2O5,1.0057
RbAg2(AsSe2)3,1.0057
CaCr2O4,1.0057000000000005
SrMg14NbO16,1.0058999999999996
Li7V3P8O29,1.0060000000000002
RbPt2Se3,1.0060000000000002
Hg2N2O3,1.0062
Li3V4O8,1.0062000000000002
NaCaNb3Si3(SO8)3,1.0064
Sr4LiMn2Cu3(SO)4,1.0064000000000002
Hf3N4,1.0064000000000002
CuH12C2(NO2)6,1.0065
ZnCoO2,1.0065000000000004
TaBi4ClO8,1.0065999999999995
Na5FeHO4,1.0068
Li2V4O3F8,1.0068
MgTiV3O8,1.0069
HgC4NCl3,1.0069
Mn9Zn6Si4(SbO14)2,1.0069
Li9Mn2Co5O16,1.0069000000000004
RbMgCr3O8,1.0071
MgTi(CoO3)2,1.0071000000000003
Zr2SO3,1.0071000000000003
Ba4Sr2Lu3(BiO6)3,1.0072
V5CoO12,1.0072
RbMg14SiO16,1.0072
LiCoP2O7,1.0073
MgZn2(FeO2)4,1.0073
Mg(NiO2)4,1.0073
TlIn5S6,1.0073
CoN6(ClO)2,1.0073000000000003
Al2Ni2O7,1.0073000000000008
Na2BiO3,1.0073999999999996
V5O12,1.0074000000000003
Cs3Mo2Br9,1.0076
Sr2LiFeO3F,1.0076
BaTlCu3Se4,1.0076999999999998
LiBeAs,1.0077000000000005
Li2VO2F,1.0077000000000005
Li4Ti3(CoO4)3,1.0078
Mg7SnN6,1.008
Li7Mn4CoO12,1.0080999999999998
Li8TiMn3O12,1.0081000000000002
CeSe2,1.0082
Be2CoN2(O3F4)2,1.0082
Mg6BWO8,1.008399999999999
LiCr2O4,1.0084
NaMg2Ge2PS5O24,1.0084
Ag6Hg(P10I)2,1.0085000000000006
Li3V3P8O29,1.0087
Ta2MoO8,1.0087000000000002
NaHfMg14O15,1.0088999999999997
Li7Mn2(CoO4)3,1.0089
CeSe2,1.0089
K2Sn(AsS3)2,1.0089
Li4MnSn(WO6)2,1.0090000000000003
La(SiP3)2,1.0091
CaC2O5,1.0092
Sm2Pb2O7,1.0092
UAg3(AsO4)3,1.0093
Cs2NaTlBr6,1.0093
C,1.0093
Li3Cu3(PO4)2,1.0093999999999994
NbV(Cu3Se4)2,1.0094
MgMnZnSiO6,1.0094
Er6Mn(GeS7)2,1.0094000000000003
Li32Mn11Cr5O48,1.0094000000000003
Na4Ca2SiP4,1.0094000000000003
KZnHCl3,1.0095
LiLa(C2O5)2,1.0095999999999998
RhI3,1.0096000000000005
Zn(SnO2)2,1.0096999999999996
MgFe4(CoO4)2,1.0097
CsKZr6BCl15,1.0097999999999998
Li7Mn5O12,1.0098000000000005
Li5(CoO2)4,1.0098000000000005
Li8V3P8O29,1.0099
In6TeO12,1.0099
Na2Mg(SO6)2,1.01
MgMn2(FeO2)4,1.0100000000000002
NaV5O10,1.0100000000000002
TeMoWSeS2,1.0100999999999998
La4MgCoO8,1.010199999999999
Rb2NaTlBr6,1.0102
Li3V3P8O29,1.0102
Na6La6Nb2Si5S7O48,1.0102000000000002
Li2Mn2SnO6,1.0102000000000002
Na3Be3B3P6O25,1.0103
Li3Si2(NiO4)2,1.0103000000000002
ZnBi4O9,1.0103000000000004
MnTeH18(SN2)3,1.0103999999999995
Mg(CuO)2,1.0104999999999995
LiBeSb,1.0104999999999995
RbCuSe4,1.0105
Li3VS4,1.0106
BiSbSe3,1.0106000000000002
Li4Ti3Ni3(SbO8)2,1.0106000000000002
ReH8(NCl3)2,1.0107000000000002
Li2CrPO5,1.0107999999999997
LiCe(C2O5)2,1.0108
Si3NCl9,1.0108
CeSe2,1.0109
ZnCdAu2,1.0109999999999997
LiMnB2O5,1.011
CeSe2,1.0112
Na4Ca3SiGeS5O24,1.0113
Li7Mn4CoO12,1.0113
K4MgV6O16,1.0113
LiSbAu2,1.0113000000000003
BaMg14NbO16,1.0114
Li5Cr2P2(CO7)2,1.0114
Te2MoW3(Se2S)2,1.0114
Zn(FeO2)2,1.0114000000000003
KY2CuS4,1.0114999999999998
Na6PbO5,1.0116
Bi(MoO5)2,1.0116999999999998
Ba(NaSi2)2,1.0116999999999998
Na42Nb8Zn16Si21(S5O48)3,1.0117
Li6Mn3CoO10,1.0117999999999996
Zr(ZnN)4,1.0118
La4Mn5(Si2O11)2,1.0118
MgS2,1.0118
KMg3(SiO3)4,1.0118999999999998
Li5Mn3O8,1.0119000000000002
Li3MnF6,1.0121
Mn(CO)5,1.0121
SrLa9MgGa9O29,1.0121000000000002
MgMnVP2(O4F)2,1.0121000000000002
Li4V3P8O29,1.0122
CeSe2,1.0122
LiMn2P3O11,1.0122999999999998
H8(NO2)3,1.0125
Zr6FeI14,1.0127000000000002
LiV2P4(HO8)2,1.0127000000000002
Mg(InS2)2,1.0127000000000006
CaH16C4N8(ClO2)2,1.0128
CrFeCoO4,1.0128000000000004
SrGdCuSe3,1.0129
Zn(NCl2)2,1.013
MgFe8(OF)8,1.0131
Ge19(AsI)4,1.0131
Ba2SmGaTe5,1.0132
RbLuS2O9,1.0133
MoW(SeS)2,1.0134
CaMn2(P2O7)2,1.0134
Bi9AuBr9,1.0134000000000003
CeSe2,1.0134999999999998
Li2Mn2F7,1.0135
SrLaTa2(NO)3,1.0135000000000003
LiMo2P2O11,1.0137999999999998
SrMg14NbO16,1.0137999999999998
Na(CO)3,1.0139
V(PO3)4,1.0139000000000002
In4Bi3S10,1.0139000000000005
Na2NiH8(SO6)2,1.0139999999999998
Li2CrO2,1.014
Li3V3P8O29,1.014
Ca3SnS5,1.0141
V3O5F3,1.0141999999999998
CrF4,1.0142
NaGdCu2F8,1.0142
PPdS,1.0142999999999995
Pr(ErS2)3,1.0143999999999995
Ba4GeP4,1.0143999999999995
TmC8N4Cl7,1.0143999999999995
La2MgFe2(MoO6)2,1.0145
La4MgFeO8,1.0145
Ga3NO3,1.0145
BaNaZrBiO6,1.0145
Ba3UFe2O9,1.0145000000000004
Li4MnCo2O7,1.0145000000000004
Na10Ca3Ti5Si6(SO8)6,1.0146000000000002
HfTe7SeCl6,1.0147
NiH18(IN)6,1.0147
Rb2AgMoCl6,1.0147000000000002
Cs7NbIn3As5,1.0148
Tl3SbSe3,1.0148
CuH12C5S4N,1.0149
Rb4Sn(SO)4,1.015
Li7Mn2(CoO4)3,1.015
RbGe,1.015
Li7Mn5O12,1.0151000000000003
Ho12Ge5S28,1.0152
Ti7Fe13O30,1.0152999999999994
MgTi3V5O16,1.0153999999999996
B2CN2,1.0153999999999996
MnH6(CN2)4,1.0154
K2Rb4Fe2O5,1.0154999999999998
MgZn7O8,1.0155
NaFeBr4,1.0155
CsTiCu3Se4,1.0155000000000003
MgMn3V2O10,1.0156
YbGeO3,1.0156999999999998
HfMg14CrO16,1.0157000000000007
Na2V(PO4)2,1.0158
MgFe4(PO3)12,1.0159000000000002
Sr(SO5)2,1.016
Na2Mn3O7,1.0161
Fe3O4,1.0162
Li6Mn3CoO10,1.0162
Mg14ZnCO16,1.0162000000000004
Li4Ti2Fe3Sb3O16,1.016299999999999
Li11Fe12(BO3)12,1.0162999999999998
Al2PdPt,1.0162999999999998
Li4V3P8O29,1.0163
Li4Ti3V3(CoO8)2,1.0163000000000002
Li9Mn7O16,1.0164
CeSe2,1.0164999999999995
VP2O7,1.0164999999999995
Sr5(PbN3)2,1.0165000000000002
In2TeO6,1.0165999999999995
Na3FeO3,1.0166
CaCr2O4,1.0166
Eu(BS2)2,1.0166000000000004
Li2CoSnO4,1.0167000000000002
CeSe2,1.0167000000000006
Li5V3P8O29,1.0168
Ce(SO4)2,1.0168
La2ReO5,1.0168
Mg(BC)2,1.0168999999999997
Mg2Mn3O8,1.0169
LiFe3O4,1.0169
Ca3Mn2(GeO4)3,1.017
VP2O7,1.017
Er3ScS6,1.0170999999999997
Li32Mn13Cr3O48,1.0171
Li6V3P8O29,1.0171
CeSe2,1.0171
Li5Fe3(SbO5)2,1.0172
Na4Ni7O16,1.0172
Sr2MgZnMoO6,1.0172999999999996
K2CeH2S3O13,1.0173
DyMnO3,1.0173
Ga4Hg11(AsBr4)4,1.0173
MgTl2Pb16(Br9O4)2,1.0173
La3Ti2N3O4,1.0174000000000003
Li32Mn3Cr13O48,1.0174999999999996
CaV6O11F,1.0175999999999998
Tb2MgCr2O8,1.0176999999999998
MgMn3CoO8,1.0177
Na2Sn2Se5,1.0177999999999998
LiCr2(PO4)2,1.0178000000000005
KLi4CrO5,1.0179
La2MgV2O8,1.0179
Bi2Se4Cl7,1.0179
CsTl2Bi,1.018
MgTiSnO4,1.018000000000001
Li6Mn3CoO10,1.0181
Tb3CuSnSe7,1.0182000000000002
MoSe2Cl4O,1.0183
Zn(GaTe2)2,1.0183000000000004
Li9Mn2Co5O16,1.0184000000000002
Rb3AuF6,1.0184000000000002
RbSb4S7O,1.0185
RbCrSe2,1.0185
K2MgZn4P4(HO8)2,1.0185
P2Pt,1.0185999999999993
PN2O4F,1.0185999999999995
AlCuTe2,1.0186000000000002
NaLaMnWO6,1.0187999999999997
KAl2(SiO3)4,1.0188
RbMg6BO7,1.0189000000000004
LiNbCoO4,1.019
MgV4Sb2(PO4)6,1.019
MgMn2Te2(MoO6)2,1.019
MnTe(PbO3)2,1.0191
CeSe2,1.0191
Sn(NF)2,1.0191000000000003
Li32Mn11Cr5O48,1.0192
TlFeO2,1.0193
Pr(LuS2)3,1.0193
Pr(TmS2)3,1.0193000000000003
Rb4Fe8CuH6(Se8O25)2,1.0194
Na3Co2SbO6,1.0195000000000007
GePtS,1.0195999999999996
Mn3(OF2)2,1.0195999999999998
La7SmMn3(FeO4)5,1.0196999999999994
MgV5CrO12,1.0196999999999998
Sr4C2N5,1.0196999999999998
La9In5Se21,1.0198
Te6MoI3,1.0200999999999998
BMoN3,1.0201000000000002
SiHgP2,1.0202
Cu3PS4,1.0202
Li24Mn5Cr7O36,1.0202
Ho2Mn3Sb3O14,1.0202999999999998
Sm2Mg(BiO4)2,1.0204000000000004
Mg14NbCdO16,1.0204000000000004
GaAgS2,1.0204999999999995
Nb3Se10Br3,1.0205000000000002
Na7(WO3)9,1.0205000000000002
ZnFe8Ni3O16,1.0206000000000004
Nd(TmS2)3,1.0206000000000004
K2BiCl5O2,1.0207
Li5V3P8O29,1.0207
Mg14NbZnO16,1.0207999999999997
TeWS,1.0208999999999997
Rb2CrCl5O,1.0209
Pr(HoS2)3,1.021
Te4Mo3W(SeS)2,1.021
Ca2VWO6,1.021
H2Pd(S2O7)2,1.021
Sr(InTe2)2,1.0210000000000004
Li5V3P8O29,1.0213
CaMo2O5,1.0213
Fe7(P2O7)4,1.0213
MgV4(OF)6,1.0213
Ba2CaV2FeF14,1.0214
CaHo(MoO3)2,1.0214999999999996
Nd4In5S13,1.0214999999999996
LiCo6(OF5)2,1.0215
MgV8(PO4)12,1.0215
Na2NpH2(CO3)3,1.0217
Ba2CaV2(Si2O7)2,1.0217999999999998
LiInCu2,1.0218000000000005
CsTc3(Se2Br)2,1.0219
K6Cr2O9,1.0219000000000005
La5(Mo2O7)3,1.0219000000000005
KBa4Sb3O,1.0220000000000002
K4Co2O5,1.0221
Ba4GeN4,1.0221999999999998
Hg2GeO4,1.0221999999999998
Li2MnOF3,1.0222000000000002
MgMnSiO5,1.0222000000000002
LiTiFe5O8,1.0223999999999998
Li3Si2(NiO4)2,1.0224
InBi2N3,1.0224000000000002
Li3Mn3(PO4)4,1.0226
Pr2MgV4O12,1.0226000000000002
BeSiAs2,1.0226000000000006
InGaAg2(TeSe)2,1.0227
Li3Fe5OF11,1.0227
MgZnCu2SnS4,1.0227999999999993
Te4MoW3(SeS)2,1.0227999999999997
Mn2FeAg2(PO4)3,1.0229
CdBiBrO2,1.0229
Li8V3P8O29,1.0229
Fe3O4,1.0229000000000004
Bi10Te2Br4O17,1.0230999999999997
SrPrCuSe3,1.0231
Y2MgCr2O8,1.0231
Li5V2Fe3O10,1.0231999999999997
GdBi2BrO4,1.0231999999999997
V(TeO3)4,1.0232
LiMnCo3O8,1.0232
Cd2SiO4,1.0232
Na18Nb8Zn16Si9(S3O16)9,1.0232
Re4Cl8O9,1.0233
Fe(SiP)4,1.0233
Sb2Pb2S5,1.0233999999999996
Li9Nb7V12O48,1.0234000000000003
Nb3Tl2Cl9,1.0235
TaV(Cu3Se4)2,1.0235000000000003
BaCa(Fe12O19)2,1.0236
Zr(ClO4)4,1.0238
V3P2O11,1.0239
ScZnGaS4,1.0239000000000005
CoH32C8S4(NO5)2,1.024
Li4V3Cr2Fe3O16,1.0240999999999998
CoPO4,1.0241
Ce4C10O31,1.0241
CsNd2Ag3Te5,1.0241000000000002
NbAgO3,1.0242999999999998
Na4Cd3Se5,1.0243
Li4MnCo2O7,1.0244
La4MnO8,1.0244
TcH12C4S2(Cl2O)2,1.0245
Hf(TeCl)6,1.0245000000000002
MgCo2(SbO4)2,1.0245000000000002
Na5AuSe12,1.0246000000000002
YBiTe3,1.0246999999999993
Nd(ErS2)3,1.0247999999999995
Mg14NbCoO16,1.0248000000000008
Na2Ga2As3,1.0249
TiMn3O8,1.0249
CaSiP2,1.0249999999999997
Hg6BiSb4Br7,1.025
Li2Fe(CoO3)2,1.025
MgV3CoO8,1.025
Zn(SnO2)2,1.0250999999999992
Li4V3P8O29,1.0252
Ga2TcPd,1.0252000000000003
Ni2Sb2O7,1.0252999999999997
Sn(CCl)2,1.0253
Li2Mn2CrO6,1.0254
Sr2MnGaO5,1.0254
Li4V3Fe5O16,1.0254000000000003
Ag8Sb5As3S16,1.0255
TlPt2S3,1.0255999999999998
IClO,1.0255999999999998
Yb(SbS2)2,1.0255999999999998
Li4V3P8O29,1.0256
CeSe2,1.0256999999999996
Zr2N2O,1.0257000000000005
Zr(TeCl)6,1.0257999999999998
Li3V3P8O29,1.0258
Li4Ti4Mn(Fe2O9)2,1.0258000000000005
Hf3N4,1.0259
Zn(PbN)2,1.0259999999999998
K2NaAlAs2,1.026
LiEu2CI3N2,1.0260999999999996
K3ZrC7O16,1.0261
MgSiO3,1.0261000000000005
Li7Mn7(P4O17)2,1.0261999999999998
MgMn2P2(O4F)2,1.0262
Li7Mn2(CoO4)3,1.0262000000000002
V2Zn3(GeO4)3,1.0263
CaZnAu2,1.0263
CoO2,1.0263999999999998
Dy2MgMn4O8,1.0263999999999998
K3ClO,1.0264
Re3Se4O3,1.0264
NaVPO5,1.0264000000000002
Sr4LiCu(CO5)2,1.0264000000000002
Sr3(SbN2)2,1.0266000000000002
Li6V3P8O29,1.0267
Li2FeO3,1.0267
Hg(SbS2)4,1.0267
Al2TcPd,1.0267999999999995
AgAuF4,1.0268000000000002
Nb3Se10Cl3,1.0269
Li2MnF5,1.0269
MnV4O12,1.0269
Ba2LiMn2O6,1.0269
Sr2FeWO6,1.0269999999999997
NbO2F,1.027
LiV3Zn2O8,1.027
V3C4NO7,1.0271
Mg2Cr3InS8,1.0271
Sr2FeO3F,1.0271000000000003
Ba2CaV2(Si2O7)2,1.0271999999999997
Li2Mn3VO8,1.0272
V3BO6,1.0272999999999994
V2CuH18(N3O5)2,1.0274
Li11V6O5F19,1.0274
FeSnO3,1.0275
Li3Mn(PO4)2,1.0275
MnV(P2O7)2,1.0275
CaW3O7,1.0276000000000003
Nd8AlSi3(NO5)3,1.0276000000000003
KSnN,1.0276999999999994
Na5SiAs3,1.0276999999999998
K4MgV6O16,1.0277999999999998
Nd(HoS2)3,1.0278
Sr2Y2Fe2O7,1.0278
H8Pd(NCl3)2,1.0278
Li4Ti3V6O18,1.028
LaCrS2O,1.0281000000000002
Fe3H28(S2O15)2,1.0282
Cr(B3H8)2,1.0282
K3IO,1.0284000000000002
CsEuPO4,1.0284000000000004
RbSm2Ag3Te5,1.0284999999999995
Rb2GaSb2,1.0286999999999995
LiMoS2,1.0286999999999995
K6Mg(BiO4)2,1.0287
CaAl2H16N9,1.0288
Bi12Pb2Cl6O17,1.0288000000000004
SrMg6CrO8,1.0288999999999993
LuTlTe2,1.0288999999999993
MnSb2F12,1.0289
Al4P4H11C3NO18,1.029
Na4MgCr2O8,1.0291
RbCu3GeSe4,1.0291
CeSe2,1.0291
Ba4NaCu(CO5)2,1.0292
MoP(Cl3O)2,1.0292
Sn(ClO)2,1.0294
Cs2HgPdCl6,1.0295
Nb3Tl2Br9,1.0296
Er3ScS6,1.0296999999999996
Mg14CoCO16,1.0297
Na6Mg3TiSi2(SO6)4,1.0297
MnPS3,1.0297999999999998
CuSe3Br,1.0298999999999998
Li2Mn3O7,1.0299
MgCr2O4,1.0299000000000005
MgFe3OF7,1.0301999999999998
Na26In4O19,1.0301999999999998
K6Mg(SbS4)2,1.0302
Si,1.0302000000000002
UCr2O6,1.030200000000001
Re2Cl7O3,1.0303
Li4V3CrO8,1.0303999999999998
Mg6VZnO8,1.0305
Sr3NbN3,1.0305
CeSe2,1.0305000000000002
BaV8O21,1.0306000000000002
Li5Mn3O8,1.0306000000000002
Rb2VAgSe4,1.0307
K(TeO3)2,1.0307
YTlS2O9,1.0308
K2NaTlBr6,1.0308
Tm2Cu(GeO3)4,1.0308
Sr4Fe2MoWO12,1.0308000000000002
Lu2Mn3Sb3O14,1.0309
SrFe12O19,1.0309
Yb5Se7,1.031
P7H54Ir2C18ClF6,1.031
Na8Mg(CoO4)2,1.031
RbFeBr4,1.0312
Na12Mg10Nb2Si3(S5O24)3,1.0312
ZrTe7SeCl6,1.0312
Sb8Pb7S19,1.0312
Cs4Zr6BBr17,1.0312
Li13Mn3Nb2O16,1.0313
Nd2InCuS5,1.0313000000000008
Li6V3P8O29,1.0314
Li3V2S2(O4F3)2,1.0314
V2O3F,1.0315
Tl3AgI5,1.0316
RbTmS2O9,1.0316
K2Mn(NbCl3)6,1.0316999999999998
NaCrS2,1.0316999999999998
V5O12,1.0317
Sr3Y3N5,1.0318
CaZn2(PO5)2,1.0321
Sr5Cr3O12F,1.0321
Li4MnCo2O7,1.0321000000000002
Li2CoBO4,1.0322
Ta2Te4Br10O,1.0323
SrLiAs,1.0323000000000002
CaLaVFeO6,1.0324999999999998
La7SmMn2(Fe3O10)2,1.0325999999999995
SnPS3,1.0325999999999995
V4Ge13O36,1.0326
K2P3,1.0327000000000002
Ba2PdPt,1.0328000000000002
Li4V3Cr3(FeO8)2,1.0328999999999997
CaMo4O9,1.0328999999999997
Li32Mn3Cr13O48,1.0329000000000002
K2Ga2As3,1.0329000000000002
NaH,1.033
CaSn4S9,1.033
MgMn2(FeO4)2,1.0330000000000004
Pr2MgSe4,1.0331
LiMnOF2,1.0331
Li2VO2F,1.0331
Y4Te3N2,1.0331
Na2In4Ga4SiS11O48,1.0331
Mg6NiCO8,1.0332999999999997
Ba10MgMn6(O12F)2,1.0333
Al2W2O7,1.0333999999999994
MgV4Cr2O12,1.0334
Li32Mn3Cr13O48,1.0334
Th(TeI)2,1.0334
Be2Ni(NF7)2,1.0334000000000003
Nd6Mn(SiS7)2,1.0334999999999992
Rb4InSbCl12,1.0336
ThS2,1.0336
K2Al4Fe5Si5(HO6)4,1.0337
CuH12Pt(CN2)4,1.0337
Zn3Fe4(MoO4)6,1.0337
Ti2N2O,1.0337999999999994
Na3CrO4,1.0337999999999998
MgNi2(SbO3)4,1.0338000000000005
SrMg30SnO32,1.0338000000000012
RbGdSe2,1.0338999999999998
La5V3S6O7,1.0339
Li24Mn5Cr7O36,1.0341
K3AuF6,1.0341
K2LiS2(O2F)2,1.0342
LiV4OF11,1.0343
Na2O,1.0343
Cs4Mn(AsS4)2,1.0343000000000002
Zn2Mo3O8,1.0343000000000004
Lu2CCl2,1.0343999999999998
NbP6(WO8)3,1.0343999999999998
Li2CoOF3,1.0344
K3Na(FeO4)2,1.0345
Li9Mn2Co5O16,1.0345999999999995
KN2,1.0346000000000002
SrHf7N10,1.0346000000000002
Li2Mn3CoO8,1.0346000000000002
Li2BiO3,1.0347
Cs2SiAs2,1.0347
Nd(LuS2)3,1.0347999999999995
Na5CoSO2,1.0349
KP,1.0349999999999997
ErTlTe2,1.035
Li2MnCr2O6,1.0351
Li2BiO3,1.0351
La3BN2O3,1.0351
Sr2MgZrMnO6,1.0352
K2Hg3(GeSe4)2,1.0352
Fe5O7,1.0353
K2AgMoCl6,1.0353
YbSnF7,1.0354
Ce5Y2O13,1.0354
Cs2UF7,1.0356
Li3Fe2(P2O7)2,1.0356
MgV4O8,1.0356
K3SI,1.0356
CsTb2Ag3Te5,1.0356
P4H36W(C6Cl)2,1.0356999999999998
V(CO3)2,1.0356999999999998
Cd(GaTe2)2,1.0357000000000005
Li(CoO2)3,1.0357999999999998
UAg2(WO5)2,1.0358
K3VSe4,1.0358
VCu3S4,1.0358000000000005
Sb4(SeS)3,1.0358999999999998
Rb2(ReSe2)3,1.0358999999999998
Na2AgAsBr6,1.0359
NaMgSb,1.0359000000000005
Cs6Co2O7,1.0359999999999998
Li6MnCr3(PO4)6,1.036
KHo2CuS4,1.036
BN,1.0362
Li5Mn2CoO8,1.0362
Mn(CO3)2,1.0362999999999998
V(CO3)2,1.0363
MoCl3,1.0363
Na8TiAs4,1.0363000000000002
Li7VO5F,1.0364
MgFe4(CoO4)2,1.0364
Li5Cr2Fe3O10,1.0364
Sr2YCr2GaO7,1.0365000000000002
LiV6O7F5,1.0366000000000004
LiCuS,1.0367999999999995
K2TcBr6,1.0368
LiFe5O8,1.0368000000000004
Na2In4SiS5O24,1.0368999999999997
Ta2Tl4Se11,1.0369000000000002
Li24Mn7Cr5O36,1.037
Sm2MnRhO6,1.0370000000000004
VI2,1.0370000000000004
Li3NbO4,1.0370999999999997
Li24Mn5Cr7O36,1.0371
Re5H4(CO)20,1.0372