formula,band_gap (MP)
KCaZrNbO6,2.243
CdH8(NO5)2,2.243
K2GaAgF6,2.243
CrPC5Br3O5,2.2430000000000003
Zn3GaAgS5,2.2430000000000003
Li2V3O7,2.2431
Li2Co2(CO3)3,2.2431
Cs2NdCuBr6,2.2431
MgSb3P3O13,2.2432
VCrMoO7,2.2432000000000003
Sr2MgZn2Sn2(PO4)4,2.2433
Ti2Zn3O7,2.2433
Li2Cr2O7,2.2434
CaTiO3,2.2434
P3W2N2(Cl5O)3,2.2434000000000003
Nd2V2H2Se4O17,2.2434000000000003
Ba2YbMoO6,2.2435
Ba9In4(SF)10,2.2437
H7C2N7O6,2.2437
Ba3ZrNb4O15,2.2437000000000005
Mg14ZnCdO16,2.2437000000000005
Cs2CeO3,2.2437000000000005
LaTa3O9,2.2438
NaNdHfTiO6,2.2438
LaCrWO6,2.2439
Gd4As2O9,2.244
LiAlFeO3,2.244
PSeCl9,2.244
P3IrO9,2.2440999999999995
Na6Nb4Si9Ge4(SO16)3,2.2441000000000004
K3Hg3S2Cl5O6,2.2442
ThV2O7,2.2443
K2SnS3,2.2443
Cs2DyCuCl6,2.2443
Al2Te2Cl7,2.2445
Sn3(P2O7)2,2.2445000000000004
CsLuS2,2.2447000000000004
CdHgC4(SeN)4,2.2448
CoBi2SO7,2.2448
Cs3P7,2.2449
NaNb3O8,2.2449000000000003
NaCoO2,2.2452
Li2CoP2O7,2.2452
Sr18ThCl40,2.2452
Ca3MnZnO6,2.2453000000000003
Mg30MnCdO32,2.2454
Na3Zn3SnPS5O24,2.2454
MgFe4H42(S3O23)2,2.2454
Na6Ca7Sn(SO4)12,2.2456
Dy4(SiS4)3,2.2456000000000005
Ba4Li4Ti19O44,2.2457000000000003
TaNO,2.2458
Na4MgFe(PO4)3,2.246
BaCN2,2.246
Ti3P6WO24,2.246
NaCaDySeO6,2.2461999999999995
NaGdTiO4,2.2462
NaFeF3,2.2462
Rb2FeC5N6O,2.2464
Ba3HfNb4O15,2.2464
Tm2Zr2O7,2.2464000000000004
Ge2WO6,2.2465
LiInI4,2.2465
Rb3LuO3,2.2466
YW3O8,2.2466
Sn2OF2,2.2466
UH2(SO5)2,2.2467
Fe2(SeO4)3,2.2467
TlCl2,2.2468
YFe6Bi(BO3)8,2.2470000000000003
As3H9RhC3(ClO)3,2.2471
Na2H4Pd,2.2472000000000003
Na3Ca4Nb2P3(SO6)6,2.2473
Mg3Sn2O7,2.2473
LiGaI3,2.2473
Li7SbN4,2.2473
K3V2P2O8F3,2.2475
K4PdPt(NO2)8,2.2475
Gd2AsO5,2.2475000000000005
Zn3Cd3(BO3)4,2.2477
Na3AlSi3Sn3(SO8)3,2.2478
LiV5F11,2.248
Na5ReO6,2.248
NdTi12(Bi5O16)3,2.248
CaCr3(P2O7)2,2.2481
NaZnGe3P3(SO8)3,2.2482
Na7Mg7Fe5(PO4)12,2.2482
RbSbO2,2.2483000000000004
LaTa2NO5,2.2484
ZrH8(NF3)2,2.2485
Li2Cr(SO4)2,2.2486
Mg6MnVO8,2.2486
SrTeO4,2.2486000000000006
TiZnO3,2.2487
Li3Cr13Ni3(SO4)24,2.2487
TiFeO3,2.2487000000000004
LiCr(PO3)4,2.2488
LiFeP2O7,2.2488
K4Ti3Ni(PO4)6,2.2488
SBr,2.2489
Ti(Si2O5)2,2.2489
BaMo2Se2O11,2.2489
Na3Cr2P2O8F3,2.2489
VCd2BiO6,2.249
Sc3NbP2(SO6)4,2.2491000000000003
CaP2W2O9,2.2492
Zn2SiO4,2.2492
K2TlIrF6,2.2493
Na3MgTi(PO4)3,2.2494
P3IrO9,2.2494000000000005
Sr2CeTiO6,2.2495
CaLa2ZrO6,2.2496
Li2Fe2OF4,2.2497
P4S(NF)6,2.2497
K3Fe3P4H2O17,2.2497
Ho2PbS4,2.2499
CuH2CN2Cl,2.2499
H10PdC2S2(N4O3)2,2.25
Li2Cr2O7,2.2501
Lu2MgSe4,2.2501
Na3TiInSi(PO6)2,2.2501999999999995
Na30Mg4Nb20Si33(SO48)3,2.2502
RbMg6WO8,2.2502000000000004
K6Sb2H18S8O9,2.2503
Cs3ErO3,2.2503
K14Fe4O13,2.2505
Na3Y2Nb2SiP5O24,2.2508
K3H2S2NO7,2.2508
La2MgS4,2.2508
Co3B7IO13,2.2509
Na8La2Si5Sn2SO24,2.2509
Er2PbS4,2.2510000000000003
XeNO3F,2.2512
Rb2YAuCl6,2.2513
Gd3NbO7,2.2513
Mg14ZnCO16,2.2514000000000003
Li3MnFeCo(PO4)3,2.2515
LiLaTa2O7,2.2515
TbTa3O9,2.2515
Li2GePbS4,2.2516
NdTa3O9,2.2516
HgH4C4(Br2N)2,2.2517
YMgAg(WO4)2,2.2518
LiMn2F9,2.2518
Na3SO4F,2.2518
Na2TiIn(PO4)3,2.2519
Li2CoSn(PO4)2,2.2519
Li2VO2F3,2.252
BaLaTiCrO6,2.2522
K3V5Te4(HO3)8,2.2523
SrTiFe(PO4)3,2.2525
SbP(Cl3O)2,2.2525
TaTl3Se4,2.2527
Na4UC3O11,2.2527000000000004
OsXe2O3F14,2.2528
CaSb3P3O13,2.2528000000000006
Li4Mn7(OF7)2,2.2529
Zn2SiO4,2.2529000000000003
V(PO3)3,2.253
Na6Nb3Al5(PO4)12,2.253
Li2Cr2O7,2.2531
Na5Y2SiSn2P5O24,2.2531
Sr8MgZn4(WO6)4,2.2531
Na3ScSiGe(PO6)2,2.2532
TeWNCl4F5,2.2532
CsCeF5,2.2534
Rh(CO)3,2.2534
AlAs3S5Cl4,2.2534
Nb2FeO6,2.2534
LaTi3(BiO4)3,2.2536
BaSrCeZrO6,2.2538000000000005
BaSrO2,2.2539
Na6Hf4Si7Sn4S5O48,2.2539
TiSnO4,2.254
KNdSnWO6,2.2540000000000004
AlSbI6,2.2541
Bi4Cl2O5,2.2542000000000004
Si3Ge(PbO2)8,2.2543
RbLiO,2.2543
TlAgTeO3,2.2543
BaSrLaWO6,2.2543
BaNd2Ti3O10,2.2543
KSb(MoO4)2,2.2544000000000004
TmI3,2.2545
Te4Mo3W(SeS)2,2.2546
CaLaFeSbO6,2.2547
SrTh(PS4)2,2.2547
Ca3Ge3(SbO6)2,2.2547999999999995
Mg6CdCO8,2.2548
TiCoO3,2.2549
Sb3Cl9OF4,2.2549
NaPrHfTiO6,2.2549
LiLu2W2(ClO4)2,2.2551
Li3Fe3(PO4)4,2.2551
Na3SnAsCO7,2.2552
Ba2SrUO6,2.2553
Ta4FeCoO12,2.2555
H9C2(N3O2)3,2.2556
HgBr,2.2557
HgMoO4,2.2557
LiVF5,2.2558
Na5Sc3Ge(PO4)6,2.2558
LiV(PO3)4,2.2558
Li3Cr2(PO4)3,2.2562
Ca3Sc2N4,2.2562
Cd3(PO4)2,2.2562999999999995
Sr2CaMoO6,2.2564
VBiO4,2.2564
Na7NbAl3Si3(PO8)3,2.2564
V2PbO6,2.2564999999999995
SrLiNb2O6F,2.2565
Na2TaGa3Si2(SO6)4,2.2566
TlGeBr3,2.2566
NbPO5,2.2567
Cr4Si2Br2O7,2.2567
Li6VCr3(PO4)6,2.2569
SmH12(NO5)3,2.257
Li2VCr(P2O7)2,2.2571
Ba5Ce4ZrO15,2.2572000000000005
MgWCl4O,2.2573
Rb2ErCuCl6,2.2573
Nd2Ti3(BiO6)2,2.2573
Cs2TlBiCl6,2.2573000000000003
CoAg(NO3)3,2.2574
MnZn(SiO3)2,2.2575
CaCr2O4,2.2576
Na8Si7O18,2.2576
Mg(GaO2)2,2.2577
Li2Cr2O7,2.2577
LiCrPO4F,2.2578
Ba2SnS3F2,2.2578000000000005
Ba2CaMoO6,2.258
Sr3ScRhO6,2.2581
Na4Mg(BiO3)2,2.2581
K2Pt(NO2)4,2.2581
NaLa(GaS2)4,2.2582
H4C7,2.2582
Li6Br3N,2.2583
CrPO4,2.2583
Al22CdO34,2.2583999999999995
Ca(FeO2)2,2.2584
NaNb2Al2P5SO24,2.2585
TiCdFe(PO4)3,2.2585
Ba2CeZrO6,2.2585
Cs3DyO3,2.2585
Ta12MoO33,2.2586
LiMnBO3,2.2586000000000004
MgHN,2.2587
CoNiH12C4(N2O3)2,2.2588
Na6Nb2Al2Si5SO24,2.2588000000000004
Ca2TaWO6,2.258900000000001
Ba3Ga2(Ge2O7)2,2.2589999999999995
ThNF,2.2590000000000003
V2Se2O9,2.2590000000000003
Na8Ga2O7,2.2590000000000003
BaSrCaMoO6,2.2592000000000003
SrCaLaBiO6,2.2594
LiNi6O6F,2.2594000000000003
KNdS2,2.2595
Cr2H21I7(N2O)3,2.2596
Na2Lu3Te4(IO4)3,2.2596
CaSb2P2O9,2.2597
VH12(ClO2)3,2.2597
Li2TiO3,2.2599
LiV(OF)2,2.26
Sr8Si2PtO14,2.26
Fe5(SiO4)3,2.2601
Ca3UO6,2.2601
Mg3Ge3(MoO6)2,2.2601
Ba2SrUO6,2.2601000000000004
LiV2F5,2.2602
Ca2CeO4,2.2602999999999995
NaTaO3,2.2603
In4Br7,2.2604
LiTb4Al2(FeO6)2,2.2604
C2Se(SN)2,2.2605
Na2ScTi(PO4)3,2.2606
Na2Te3Mo3O16,2.2606
Na4Nb3GaSi5SO24,2.2606
Cs2NaIrF6,2.2607
Li7Cr7(P4O17)2,2.2607
Zn2FeWO6,2.2608
Na4Mg(FeO3)2,2.261
Li4Cr7(PO4)6,2.261
UCO5,2.2611
V2CdO6,2.2611
Sm5Si3NO12,2.2611000000000008
Ho2MgAg2(WO4)4,2.2612
RbCuAg2(CN)4,2.2612
Mo2H2O7,2.2613000000000003
Sm2TeO6,2.2613000000000003
Na10Mg4In4Si3(S3O16)3,2.2614
Pb4SBr6,2.2614
TeS7Cl2,2.2614
Na2Zn3S4,2.2614
CsNa5(FeO3)2,2.2614
PdC2S2(O4F)2,2.2614
Ba2U(AsO5)2,2.2615
VBiO4,2.2615
NaGdTiNbO6F,2.2615
NiPbF6,2.2615
BiTeO4,2.2615000000000007
Na2U(MoO5)2,2.2616
RbNdS2,2.2617
B10H13I,2.2617
MgCr(WO4)2,2.2619
Mn4H2C8O17,2.2619
TlMo2P3O13,2.2621
CsK4GaO4,2.2621
Rb3Mo12PO40,2.2622
NaCaTaTiO6,2.2622
Y3TaSiS5O24,2.2624
Y2Si3(SnO4)3,2.2625
BaVSi2O7,2.2626
LiMo2P3O13,2.2627
SbI(OF4)2,2.2627
Rb2UH4(ClO)4,2.2627
Li3LaNiO4,2.2629
VF4,2.2631
LiVB2O5,2.2631
PmPaO4,2.2631999999999994
Li2VCrP2(HO5)2,2.2633
Li3VF6,2.2633
Li3Cr2(PO4)3,2.2633999999999994
NaAg(NO2)2,2.2634
BaYZn3GaO7,2.2634
NiP2WO9,2.2634000000000003
Li4Mn3(OF3)2,2.2635
NaYS2,2.2635
KLaTa2O7,2.2635
KAg(NO3)2,2.2635
Na2Ta4Si7Sn4S5O48,2.2636
LiLaTiO4,2.2637
YMg6BO8,2.2638
ZnGe2WO6,2.2638000000000003
Tm2MgSe4,2.2639
BiH3Ru3(CO)9,2.2639
Rb2UH4(SeO6)2,2.2639
CeZr7O16,2.264
SeS4N3Cl5,2.264
Ba2Mg(BiO3)2,2.264
Li2Ti3O7,2.2641
NaLiS,2.2642
LiV(PO3)4,2.2645
Na2Ca4Zr4SiS11O48,2.2645
B8O,2.2645
Ba2La2MgMn(WO6)2,2.2646
Li4TiMn2Ni3(PO4)6,2.2646
NaSrZrNbO6,2.2648
Ba2MgMoO6,2.2648
Ba3SrCa2(MoO6)2,2.2648
CaMg3SiN4,2.2649
LuCrO3,2.2649000000000004
Na2TlCoF6,2.2651
Mo3WSe8,2.2651000000000003
Rb3FeO3,2.2652
Li3Fe2(PO4)3,2.2652
NaLiZrWO6,2.2652
Li2CoSiO4,2.2654
Cr2(SO4)3,2.2654000000000005
LiMn3OF5,2.2655000000000003
Na6Sc4In4Si3(S3O16)3,2.2659
Na4Co3P4O15,2.266
V6O5F19,2.266
U(BO3)2,2.266
NaCrCSO7,2.266
KCaLaSeO6,2.2661
YTa3Si3(SO8)3,2.2662
TiAs2O7,2.2662
La4Si2Se3O7,2.2662999999999998
RbSb2PO8,2.2663
Na2GdTa5O15,2.2663
Na10Y6Nb2Si7S5O48,2.2664
Sr2Bi2O5,2.2664
Li3CoPCO7,2.2665
Na2Zn(GeS3)2,2.2665
LiMg14SiO16,2.2666000000000004
SrMgUH24C3O23,2.2667
KCaLaWO6,2.2667
NaMo2P3O13,2.2668
BaLaTaZnO6,2.2668
MgZn3S4,2.2668
NbTlTeO6,2.2669
Li7CoOF7,2.267
Cs3TmO3,2.267
Li2Co(CO3)2,2.2671
KSrBiWO6,2.267100000000001
RbLiMg30O31,2.2672
YAl2N3,2.2673
Rb3InS3,2.2673
Ca2MnAs2(H2O5)2,2.2674
K5InO4,2.2674
Co(HO)2,2.2674
Na10Ca6Zr2Si3(S3O16)3,2.2675
Sr2LaBiO6,2.2675000000000005
Ti2MnNiO6,2.2676
Al6ZnP4(H4O7)4,2.2676
Na2ScNbSi2SO12,2.2677
SrMg3O4,2.2678
BiAsPbO5,2.2678
LiCoPO4,2.2678000000000003
LiMn2F9,2.2679
KSnBr3,2.2679
NbPCl10,2.2683
Li2U3P2O15,2.2683
TiNbTl(O2F)2,2.2683
Co3B7ClO13,2.2683000000000004
Co2P2O7,2.2685
RbPrS2,2.2686
NaLaZrTiO6,2.2686
KDyTiO4,2.2686999999999995
Sr2NbCrO6,2.2687
LiCr(SO4)2,2.2688
FeSb2WC8Se2(O2F3)4,2.2688
KPrS2,2.2688
NaY(C2O5)2,2.269
Na2YNb3Si2(PO6)4,2.269
Na4Mg(WO4)2,2.269
Na2Y4Sc4SiS11O48,2.269
GdBO3,2.2691
HgPb2(ClO)2,2.2693
Na3Mg8Nb4P3(S5O24)3,2.2693
Na4Mg2In2SiS5O24,2.2694
Cs6Bi4O9,2.2695
Li2FePCO7,2.2696
Na5Sc3Si3Ge(SO8)3,2.2696
Dy2ScNbO7,2.2697
NaLaGaP(SO6)2,2.2697000000000003
Ca2Ti5(Bi2O9)2,2.2698
Cs3Er5(PS4)6,2.2701
GdBr3,2.2701
Na3La3NbP5SO24,2.2702
Na14Sc4Si9Ge4(SO16)3,2.2702
VH12SO10,2.2702
H2PtPbI6O19,2.2702000000000004
Cs3H5Pd,2.2703
CsScAsO4F,2.2703999999999995
TiP2O7,2.2704
Pr9Al5S21,2.2704
ThGeI6,2.2704
Tm2PbS4,2.2704000000000004
K2RbIrF6,2.2706
SrTa2Bi2O9,2.2706000000000004
NiH18C4S6(N2O)4,2.2707
TiBi2O5,2.2708
Ba3LiTa3Ti5O21,2.2708000000000004
Ga2I3,2.2709
C5Cl4,2.2709
GePb3O5,2.2709000000000006
Ho10Ti6O27,2.2710000000000004
BaZnSnS4,2.2711
FeTe3ClO7,2.2711
Ba3Ti2O7,2.2712
CaTeO4,2.2712
TlCSN,2.2716000000000003
Na3InS3,2.2716000000000003
S,2.2718
LiNb(PO4)2,2.2718000000000003
BaLiCoF6,2.2721
CoF2,2.2721
RbSmS2,2.2721
NaInSnP2SO12,2.2722
Na3V2P2O8F3,2.2722
K3Li2Nb5O15,2.2722
Li2Ti7Nb6O30,2.2723
CoP2WO8,2.2724
BaZnO2,2.2724
Na3TaZnSi2SO12,2.2724
Na3ScSiGe(PO6)2,2.2724
Na3Mg3SnPS5O24,2.2724
BaCaCeSnO6,2.2724000000000006
LiVF3,2.2726000000000006
BaHgO2,2.2727
Ac2S3,2.2729
CsMo2P3O13,2.2729
ZrTi2O6,2.273000000000001
CsInI4,2.2731
KSb(PS3)2,2.2731000000000003
K2YAuCl6,2.2731000000000003
MgZn3S4,2.2732
Ti(SO4)2,2.2732
Ta3Sb(PO4)6,2.2733
TaH6C2SeCl5,2.2733
TeHO3,2.2733
MgAlAg(WO4)2,2.2734
Na2Nb3AlSi2(PO6)4,2.2734
CaSnAs2O7,2.2734
SrLiTi4CrO11,2.2734000000000005
MgTe(PbO3)2,2.2736
LiCoPO4,2.2736
BiSb3(PO4)6,2.2741
Na14Y4Si9Sn4(SO16)3,2.2742999999999998
ZnCo3(P2O7)2,2.2743
NaCoF3,2.2744
Ca4ZrN4,2.2744
RbNbTeO6,2.2745
SrZnCr(PO4)2,2.2745
Na4TiInSi2PO12,2.2745
CuH2CN2Cl,2.2745999999999995
Sr(ErS2)2,2.2745999999999995
Sr4MoN4O,2.2746
PI3,2.2746
Al2CoO4,2.274700000000001
Pr(ClO2)3,2.2747999999999995
Cs3SbSe3,2.2748
Mg2VP3O11,2.2748
H12PtC6(N3O4)2,2.2749
MgV2PbO7,2.2750000000000004
Cs2LaAuCl6,2.2750000000000004
Ba2Li3TaN4,2.2751
Li2SnO4,2.2753
Na6Nb4Si9Sn4(SO16)3,2.2753
Ba2Li3NbN4,2.2753999999999994
RbLi2B3Sb2O9,2.2755
Nd2NbGaO7,2.2756
Sb3O4F,2.2757
VOF2,2.2758000000000003
KSmS2,2.2759
LiUAsO6,2.2759
MgV2(CoO4)2,2.276
BPS4,2.276
Na3ScTi3(PO4)6,2.2761
ErSbO4,2.2761000000000005
Li3LaNiO4,2.2762
Rb2Nb3Cl7O5,2.2762
V2Pb14Cl4O17,2.2763
Zn(GaS2)2,2.2764999999999995
Na5La3NbSiP5O24,2.2766
V2CdO6,2.2767
NaLaSe2,2.2767
Na3Ti3Al(PO4)6,2.2768
Na3Nb2Zn4P3(SO6)6,2.2768
Na2Nb3InSi2(PO6)4,2.2768
Mg2Fe5(SiO3)8,2.2768
AlInO3,2.2769999999999992
PrPS4,2.277
Zr4N2O5,2.277
Na30Ca20Ta4Si9(S3O16)9,2.2772
MgSb2(O2F)2,2.2772
Na5La3Sn(PO4)6,2.2773
CeZr9O20,2.2773000000000003
Co2TeBr2O3,2.2773000000000003
LiV(PO3)4,2.2775
SrSmDyMnO6,2.2776999999999994
Os3C9Se2O9,2.2777
S2NO,2.2777
Na2ZnH3Cl4,2.2777000000000003
Li3VSi2O7,2.2777000000000003
Rb2MnV2O7,2.2777000000000003
LiInGeO4,2.2778
LiNi2OF3,2.2779000000000003
IrS3Cl11,2.278
Mg2Ta4Si3(SO6)6,2.278
Na3PrTi2Nb2O12,2.2781
K6InTe4Cl,2.2783
Ba2SiSe4,2.2783999999999995
K2ZrFe(PO4)3,2.2784
LiFeOF2,2.2784
ErPtF7,2.2785
Hg2Mo2O7,2.2785
Na3Ca8Nb4P3(S5O24)3,2.2785
LiSn2P5O16,2.2785
Na3NbAlSi2PO12,2.2785
NaNi2H3(SO5)2,2.2785
RbMo2P3O13,2.2787
Na2Zn2Se3,2.2788
LiFe4OF7,2.2788
BiOF,2.2789
CsAg2I3,2.2789
Na10Sc7NbSi6(SO8)6,2.279
AgI3O8,2.279
NaTbS2,2.2791
LiNi4(PO4)3,2.2791
NaBi5O8,2.2792
ZrPbO3,2.2792000000000003
Y2Zr8O19,2.2793
AgC3N3O2,2.2793
UH12C6N3O8,2.2794
MgFe2(OF)2,2.2794
Li15Ti11Nb5O42,2.2795
AgCSN,2.2797
NaTaO3,2.2798000000000003
Rb2MgO2,2.2799
Rb2GeS3,2.2799
LiLa3MnO7,2.2799000000000005
Na5Ca2Fe3(PO4)6,2.2799000000000005
Rb2Mo(OF2)2,2.28
Na6Sn2S7,2.28
Na6Mg5NbP3(SO6)6,2.2801
SrH2N2O5,2.2801
Zn2SiO5,2.2801
SrPrYMnO6,2.2802
K2P4H6PtO11,2.2802
Ca2VP3O11,2.2803
VF4,2.2804
Na3MgTi(PO4)3,2.2804
CS3N5Cl,2.2804
MgTe(PbO3)2,2.2805
K2SmAuCl6,2.2805
MgBi4(WO6)2,2.2805
Na10Nb6Ga2Si11SO48,2.2807000000000004
KLuTa2O7,2.2807000000000004
ReN(OF2)3,2.2809
TlSb3F18,2.2817
Ba17Y16Zn8Pt4O57,2.2817
Mg3AsN,2.2818
Cl2,2.2818
Li2MnF5,2.2819
AgH7CN8O7,2.2819000000000003
Gd3NbO7,2.282
Na2Mg(SbO3)2,2.2822000000000005
Zn2H24C12Br7O6,2.2823
Na2CeO3,2.2823
HgH4C2(N2Cl)2,2.2824
Bi4I2O5,2.2824
Cs3YO3,2.2826000000000004
Re2C9S3O8,2.2827
V2Bi4O11,2.2827999999999995
Li2TiVO5,2.2828
TcC5IO5,2.2829
B8P2H39RhC13,2.2831
SbXeOF9,2.2831
Rb10Al24Cd7(SiO4)24,2.2832
InI3,2.2833
Rb3InO3,2.2833
Rb3Er3(PS4)4,2.2833999999999994
LiFeP2O7,2.2834
MnP2WO8,2.2835
V2ZnO6,2.2835
Na2FePCO7,2.2836
Li2VF6,2.2836
SrNdDyMnO6,2.2836000000000003
K3V5O14,2.2837
K2OsN3Cl3O5,2.2837
NaCaZrNbO6,2.284
Na3LaNb3Si3(PO8)3,2.284
Li6Cr5(P2O7)4,2.2840000000000003
NaLiTe,2.2840000000000003
BaCo2(PO4)2,2.2841
Sr3MoO6,2.2841
SnBO3,2.2846
Li3AsS3,2.2848999999999995
Rb6Ti2O7,2.2849
Li2FeO2,2.2850999999999995
Na2Sc3TaSi2(SO6)4,2.2852
Li3Mn3OF7,2.2852
Ba2GeS4,2.2853
RbLaTa2O7,2.2853000000000003
SrZrTiSnO6,2.2854
Ba2MnCdFe2F14,2.2854
Ca3(AlN2)2,2.2854
NaDyS2,2.2856
BaSrCe2O6,2.2856
Ta2Co4O9,2.2856999999999994
H7C4(N3O2)3,2.2857
La2MoO6,2.2858
MoH4O5,2.2858
Sm3NbS3O4,2.286
Cs2RbAsI6,2.286
CrFe3Sb2(PO4)6,2.2861
NaMoAsO6,2.2861
Cr4Co3(PO4)6,2.2862
Cs2InBiF6,2.2862
UCO5,2.2864
Fe(CO)5,2.2865
Tl2Ni(CN)4,2.2866
Si7CN10,2.2868
FeSO4,2.2869
Te2MoWSeS,2.2869
RbMg30WO32,2.287
ScSnP(SO6)2,2.2873
Mn(IO3)2,2.2873
Sr2CeSnO6,2.2874
ReC4IO4,2.2874000000000003
HgWO4,2.2876
CuAs12P4S12Br,2.2876
Li2CrFe(PO4)2,2.2877
Na4Mg(FeO3)2,2.2877
UH12C4Se(NO4)2,2.2879
Rb2U(MoO5)2,2.2880000000000003
Te4Mo3W(SeS)2,2.2880000000000003
K4MgFe3(PO4)5,2.2881
CaBiNO5,2.2881
KBi6IO9,2.2881000000000005
Na6Ta3Ga5Si6(SO8)6,2.2882
Na3PS4,2.2883000000000004
NaBi2Sb3O11,2.2883000000000004
Rb2NdCuBr6,2.2883000000000004
V3(PO4)2,2.2883000000000004
Tb2MgS4,2.2883999999999998
NaMo(PO4)2,2.2884
Ba3(BrO)2,2.2886
UZn4P2(H2O5)3,2.2888
CsCuAg2(CN)4,2.2889
Tm2S3,2.2889
Sr2SeS,2.2889
Mg6MnO8,2.2891
Tl2Cr2O7,2.2892
Ba3Lu2Zn5O11,2.2892
MgV2O6,2.2893
CrSb2H12(C2O)4,2.2893000000000003
CaZrTiSnO6,2.2893000000000003
Rb2SmAuCl6,2.2894
Ba2V2FeHO9,2.2895
Na12Nb10Zn2Si15(SO24)3,2.2896
Na4Nb3AlSi5SO24,2.2896
LiCeF5,2.2896
Co3B7O13F,2.2897000000000003
Na3ScTiSi(PO6)2,2.2898
VPPbO6,2.2898
Na6Mg3ZrSi2(SO6)4,2.29
Na9Ca5TaSi3(SO6)6,2.29
Mg2PHO5,2.29
Li2VF5,2.2902
H5C2S2N3,2.2904000000000004
Rb2TaCuS4,2.2905
Ba3(BrO)2,2.2906
NbCl5,2.2907
Li4Ti11O24,2.2908
AlICl6,2.291
NaMnCrF6,2.2911
Sb2C4O,2.2912
Na6Nb2Ga2Si5SO24,2.2912
K2PrCuCl6,2.2912
CrCdO4,2.2913
TePb5O8,2.2914000000000003
VO2F,2.2914000000000003
GdFe3(BO3)4,2.2915
LiMoO2,2.2916
KLaZr2O6,2.2916
SrTbPrMnO6,2.2916000000000003
In4Br7,2.2917
Te2Xe(OF5)2,2.2917
Na3PS4,2.2919
RbNbCl6,2.2919
Na3Sc2Nb2SiP5O24,2.2919
SrC2,2.2919
MgV2Fe2(H2O5)2,2.292
Ca(CoO2)2,2.2920000000000003
Na5Sc2Nb2Si3(PO8)3,2.2921
FeH7SO8,2.2921
La3VH3O8,2.2922
Fe(ClO2)2,2.2922
Ni3H6SO3,2.2922
LiFeSiO4,2.2924
LiCrPO4,2.2924999999999995
Gd(ClO4)3,2.2925
Ba5Li2(WO5)3,2.2925000000000004
Li2VCr(P2O7)2,2.2926
Ta6Mn2FeO18,2.2926999999999995
Na18Mg4Ta20Si27(SO16)9,2.2927
P2S3,2.2929
LaMgI5,2.293
Li3Fe(PO4)2,2.2931
K3SbSe3,2.2931000000000004
Ba2CeZrO6,2.2933
HoSbO4,2.2933
Mg(SiO2)16,2.2934
Li6FeO4,2.2934
KNbO3,2.2934
LaZnCrSnO6,2.2934
V2Bi4O11,2.2934000000000005
Ti3Zn2O8,2.2935
In2WO6,2.2936
CoH14C10(N4O)2,2.2936
BaNaBiWO6,2.2936
CuAs12P4S12Cl,2.2937
AgI3O8,2.2937000000000003
RbAuC2(SN)2,2.2937000000000003
Fe7Pb7F34,2.2939
Li3BiO3,2.2939
MgTe4H4(O3F4)2,2.2941
BaO2,2.2941000000000003
DyFe3(BO3)4,2.2942
YSb(PbO3)2,2.2943000000000007
Hg4Se4O9,2.2944
Mg2Sb2O5,2.2944000000000004
RbNaS,2.2945
Na2CeO3,2.2945999999999995
Be(NF2)2,2.2947
NaHf3TaSi3(SO8)3,2.2947
LiFe(PO3)4,2.2948
K2Nb3Cl7O5,2.2949
Mn2P2O7,2.2949
In2Cl3,2.295
Na3NbGa3P5SO24,2.295
SiI2,2.295
YBiO3,2.2950000000000004
La3MgAlS7,2.2951999999999995
Ca2Ta2O7,2.2952
SrLaTaNiO6,2.2954
Li2Cr2(SO4)3,2.2954
RbTi3FeO8,2.2955
K2NaNb(OF2)2,2.2955
NaYNb3SiP5O24,2.2955
Li48P16S61,2.2955
SmPaO4,2.2955999999999994
Na10Y7NbSi6(SO8)6,2.2956
Li3VSi2O7,2.2957
S5N6,2.2957
Na3La2Sn2P5SO24,2.2958
LiNi5O3F5,2.296
LiTi2(PO4)3,2.2960000000000003
Na6Ca2Zr6Si5S7O48,2.2962
Cs4Ge5(PbS4)4,2.2965
CsVZnF6,2.2966
MnB2(H7N)2,2.2966
K5YO4,2.2966
Li2CoGeO4,2.2966999999999995
Tl2Mo2P2O11,2.2966999999999995
Na3ScTiSi(PO6)2,2.2967
LiVP2H5O9,2.2968
V2As3H17C4N8O17,2.2969
Rb8Ti3Cr2Ni3(P2O7)8,2.2969
Li3CoPCO7,2.297
SbO2,2.2971
Na3Ti2Zn2P3(SO8)3,2.2971
SmSbO4,2.2974
Ba13Dy8Zn4Pt4O37,2.2975000000000003
H6C2SN3O2,2.2976
TeMoCl7O,2.2976
Nb2Bi2PbO9,2.2978
SmMoO5,2.2979000000000003
Li3Fe3(WO6)2,2.298
Ti(PO3)4,2.298
CaVAs2O7,2.2981
K2LiNb6(PO8)3,2.2981
Na2Al2In2SiS5O24,2.2982
Ti2MnZnO6,2.2983
LiV2FeO7,2.2984
Ba17Ho16Zn8Pt4O57,2.2984000000000004
Mg2BiWO6,2.2985
HfSiSn(SO6)2,2.2987
B2(CN2)3,2.2987
Na6Sc3NbSi4(SO12)2,2.2988
Mg3Ti(BO4)2,2.2988
Li4NbFe(WO6)2,2.2989999999999995
Mn2Si(H2O3)2,2.299
K3NbS4,2.299
BaCeO3,2.2990000000000004
LiSn3Sb(PO4)6,2.2990000000000004
TaZn2N3,2.2992
V4Fe2O13,2.2993
K3MgSbS4,2.2993
LiMg6SbO8,2.2993999999999994
H5IO6,2.2994
Cs2Mo3P3O17,2.2994
CaY2(FeO2)4,2.2997000000000005
Rb2Ge2S5,2.2998
NiH16C4(N5O)2,2.2999
Cs3ErO3,2.2999
K2H4Pd(N2O5)2,2.3
Pr2Nb11O30,2.3
Ba5Re3NO18,2.3
MgCl2O,2.3001
LiMo2P3O13,2.3002
Sb5IO7,2.3002
BaY2NiO5,2.3003
In2Br3,2.3003
K2NaNb(OF2)2,2.3005
Ti4Pb2O9F2,2.3006
NaBi5O8,2.3006999999999995
TiMnCr(PO4)3,2.3007
BaMgH4,2.3007
ZnMoO4,2.3008
Cs3HoO3,2.3008
Na5Ca2Ga2P3(SO8)3,2.3009000000000004
NaAl2Sn2P3(SO8)3,2.3009000000000004
Rb2LaAuCl6,2.301
PrTi6Bi7O24,2.3012
H6Pd(NO)4,2.3012
Na5Ga3Si3Ge(SO8)3,2.3012
K3Nb3Ge2O13,2.3013
LaMgI5,2.3015
Ag2S2O7,2.3016
S,2.3018
Cs2Ge2S5,2.3018
LuBiO3,2.3018000000000005
TeW2Se2S,2.3019
Lu2PbS4,2.302
AsSe3(NF3)2,2.3021000000000003
Ba3TiNb4O15,2.3023
Ba4Li4Ti19O44,2.3023
Ni(NF7)2,2.3025
Mg14TiBO16,2.3025
Li2Cr3WO8,2.3026
Ga2PbS4,2.3027999999999995
Rb3SbSe3,2.3028
K2Na5Al7Si5O24,2.3028
SiC,2.3028999999999997
NaAg(CO2)2,2.3029
Ba2CuClO2,2.3029
Na2Li(H2N)3,2.3029
UH4(SeO5)2,2.3029
BaSr3Ca2(MoO6)2,2.3031
Na2As4O11,2.3031
LiTi2V3O12,2.3032
Sc2Cd3(GeO4)3,2.3032
Na6Mg2Zr6Si5S7O48,2.3033
KVPO4F,2.3034
UNiH14O9F4,2.3034
CsRbMo3P3O17,2.3035
As4S3,2.3035
Te4Mo3WS4,2.3035
Mg14CrSiO16,2.3035000000000005
BaBi4O7,2.3036000000000003
Sn3(HO2)2,2.3038
XeF6,2.304
Li3Fe(MoO4)3,2.304
H2WO5,2.3040000000000003
ZnAg2P2O7,2.3041
Ca3Fe3(AsO4)4,2.3041
LaTa3Si3(SO8)3,2.3041
LaMoO5,2.3042
SrMg6CO8,2.3042
DySbO4,2.3042
H3Os4C12ClO12,2.3043
H2W2O7,2.3043
Na2Nb3GaSi2(PO6)4,2.3045
LaFe3(BO3)4,2.3045000000000004
TlV3(SeO6)2,2.3046
Na2TiFe5(Si3O10)2,2.3046
NaAuS,2.3046999999999995
TbTa3O9,2.3048
LiFe7(OF3)3,2.3048
Ba17Er16Zn8Pt4O57,2.3049
NaTiGaP2SO12,2.305
KCd(NO2)3,2.305
InSn2Br5,2.305
Rb2Si2Se5,2.3052
CaTiO3,2.3053
MgCr(WO4)2,2.3053
PbO,2.3054
Ba2CePbO6,2.3054
SiO2,2.3054
Os2C6SO6,2.3055
PNCl2,2.3055
RbBaPS4,2.3055
NaHoS2,2.3055000000000003
NaLi2MnPCO7,2.3055000000000003
Te2Mo3W(Se2S)2,2.3056
Fe2H13C6NCl2O11,2.3056
Ge2C2(SeF2)3,2.3058
Zr4FeBiPb4O15,2.3058
Bi15AsO25,2.3058
Na6Ca3SnP4(SO12)2,2.3059
MgV2CoO6,2.306
Na2FeH7(SO6)2,2.306
Li3FeAsCO7,2.3061000000000003
KYH14(C2O3)6,2.3063
Na6Hf4Nb4Si9(SO16)3,2.3064
Cs2PdF6,2.3065
Ba18In8(S7F6)3,2.3067
CoH18CN6ClO3,2.3067
LiMnBO3,2.3069
ReTeSeCl4,2.3069
U2H18C4Se3N2O17,2.307
SrCaCeTiO6,2.307
Ca(MoO2)2,2.3071
K4MnBr6,2.3071
Cs3Cu2Cl5,2.3072
Na3Nb10Zn2Si3(P5O24)3,2.3072
Ba2CuBrO2,2.3073
TlFe(SeO4)2,2.3073
Na4CaSn3(PO4)6,2.3075
UP3H7O8,2.3075
Fe4OF6,2.3076
Li20Si3P3S23Cl,2.3076
CdCN2,2.3076
AlBi(WO4)2,2.3077
MoPbSeO6,2.3078
Na14La4Ti4Si9(SO16)3,2.3078000000000003
La2GaFeO6,2.307899999999999
Li2BiBO4,2.3079
Y2MgS4,2.308
MgV2O5,2.308
LiP2WO8,2.308
SrCo2(AsO4)2,2.3082
Os3C8SO8,2.3082000000000003
Na7NbGa3Si3(PO8)3,2.3083
Li6Ca12Mo4N16O3,2.3083000000000005
KNbN2,2.3084
Pb2IOF,2.3084
Na2ScNb3Si2(PO6)4,2.3084
LiV(PO3)4,2.3085
Na3AuS2,2.3085
Ca4PtO6,2.3086
Li2Mg(HN)2,2.3086
Si2MoO6,2.3088
Na2CoSiO4,2.3088
RbLiSe,2.3089
ErSeI,2.309
Li2CoSn(PO4)2,2.3091
ZnBiSbO5,2.3091000000000004
Mn6AgP7O24,2.3092
Na6Nb2In2Si5SO24,2.3092999999999995
Rb2YTi(PO4)3,2.3093000000000004
Na14Y4Si9Ge4(SO16)3,2.3093000000000004
Na2Hf4Ga4Si3(S3O16)3,2.3094
Cs2Nb3Cl7O5,2.3094
UH18C4Se2N2O11,2.3095
KClO2,2.3095
TiZn2O4,2.3096999999999994
Na2Sn2H4O5,2.3097000000000003