formula,band_gap (MP)
Er2MgCr2O8,1.5186000000000002
Na2MgMnP2O7F3,1.5187
MgV2(OF3)2,1.5187
Ca4Co5(TeO6)3,1.5187000000000004
K2Th(PSe3)3,1.5188
V2OF5,1.5188
Li3Ag2F5,1.5188
Ba2GdMgMoO6,1.5189
Ti2FeO5,1.5189999999999997
K2AgAsCl6,1.519
Ba4Nd2Cd3Se10,1.5191
Ta4Mn2Zn3O16,1.5191
Nd4Cu2O7,1.5191999999999997
LiV3OF11,1.5192
Li5CoO4,1.5192
LiMnF4,1.5192
Ir2(Se3Br2)3,1.5193
Sb2Cl7F3,1.5194
AlInN2,1.5194
C2NCl,1.5194
C15S4,1.5195
Pm2MgS4,1.5195999999999998
Dy3CuSiSe7,1.5196000000000005
P2PtO7,1.5197
V3CrO8,1.52
Li7Fe8(BO3)8,1.5200999999999998
K2Ti(TeO4)3,1.5200999999999998
La4Ag2Se7,1.5201000000000002
HoAgS2,1.5202
V4(OF3)3,1.5203
Al8(SiO6)3,1.5203000000000009
Na6Zr4Si7Sn4S5O48,1.5203999999999998
Mg6ZnSiO8,1.5204000000000004
MgMnZn2WO6,1.5204999999999995
Na5CuSO2,1.5205
Ho3Se3N,1.5205000000000002
K5Ta(TlAs2)2,1.5206
Sr2Tl2O5,1.5206999999999995
V2O3,1.5206999999999995
Li4MnGe2S7,1.5209
LiFe2(PO4)2,1.5209
Li2VO2F,1.5210000000000004
AsSeS2(NF3)2,1.5211
K3SnSe3,1.5211
RhCl3,1.5212
Cs7U8V2ClO32,1.5213
Hg3Cl4O,1.5213
Gd6S3(OF4)2,1.5214
LiP4WO12,1.5214000000000003
K2CdSnSe4,1.5215
BC2N,1.5215999999999994
Li5NiO4,1.5215999999999998
Si,1.5215999999999998
ZrIn2O5,1.5216999999999996
NiB18(H11C2)2,1.5217
LiVSiO4,1.5217
CsAuO2,1.5219000000000005
Na30Mg8Nb16Si27(SO16)9,1.5219999999999998
Li5VO4F,1.522
Na8Ca2In2Si3(SO8)3,1.5221
K3LiSi4,1.5221999999999998
Sm2ThS5,1.5222999999999995
Zn(FeO2)2,1.5223
ThCN,1.5224000000000002
NdFe5Bi4O15,1.5224000000000002
CrSO4,1.5224000000000006
Li2TiFeO4,1.5224999999999995
Na4Ge5O12,1.5224999999999995
CaMnB2O5,1.5225
SrCaGdBiO6,1.5225
La3ReO8,1.5225999999999995
Ge2MoO6,1.5225999999999995
Na2CaZr2Si10HO26,1.5226
SnPbS2,1.5226000000000002
MgGe(SO4)3,1.5227
LiVCrP2(HO5)2,1.5227000000000002
CsNbN2,1.5227999999999997
Li8CoO5F,1.5228000000000002
VOF,1.5228000000000002
LaSO,1.522899999999999
Na2VBPO7,1.5229
CuH3C2NO4,1.5229
V3OF11,1.5229999999999997
BaMnZnF7,1.523
LiNdSe2,1.523
SF4,1.5231
CsPrCdTe3,1.5231000000000003
ZnFe4CoO8,1.5231000000000003
Ce8Gd2O19,1.5231999999999992
Na2Ti4Si5Ge4S7O48,1.5232
Ba3BAsO3,1.5233
MgCr2O4,1.5233
VGa2O5,1.5235
Cu7P12S9Cl7,1.5235999999999996
Ba2Nd2Mg(Fe2O5)2,1.5235999999999996
Mn2ZnH12(NO2)4,1.5236
TeS3N2,1.5236
Cs2LiTlCl6,1.5236
Li6V(SiO4)2,1.5238
ZnSn3P2(SO6)4,1.5238
SeBr,1.5238
CaHfS3,1.5238
LiYSe2,1.5238999999999998
Li5Ti2Fe5O12,1.5239999999999996
MgV4O7F5,1.5239999999999998
Rb2Ti(TeO4)3,1.524
Nb2Ge2O7,1.524
Li2MnF5,1.5240999999999998
TmCrTeO6,1.5242
Sr3SbI3,1.5242
NaCdSbS3,1.5243000000000002
BaBiClO2,1.5244
V(SiO3)2,1.5244
K2Ce(NO3)6,1.5245
Ti7Sn3O20,1.5248999999999997
Sr2MgCo2O5,1.5248999999999997
Fe7(AsO4)6,1.5249
NaNbO3,1.5249
MoP2O7,1.525
Ag3BiO3,1.5250000000000004
Mg(SbO3)2,1.5252
Li2AlNiO4,1.5252
Li9Mn2Co5O16,1.5252000000000003
LiMnP4(H2O7)2,1.5253
Na4Sc2Ti2Si3(SO8)3,1.5253
CoS3N3O2,1.5254
LiFe2(CO3)3,1.5254
V3OF11,1.5254
Te4MoW3(SeS)2,1.5254000000000003
MgBiMoO5,1.5255999999999998
Rb6U5V2O23,1.5258999999999998
Mg2TaVO6,1.5259999999999998
NiSn(ClO)6,1.526
Zn(MoO2)2,1.5260999999999996
Li4MnF7,1.5261
Rb2YAuF6,1.5261
DyCu(MoO4)2,1.5262
Ba3La7Ti3Cr7O30,1.5262000000000002
Zn3Fe4(WO4)6,1.5262000000000002
Co(PO3)3,1.5263
Mo3S7Cl4,1.5264000000000002
Na10Mg6Si3Sn2(S3O16)3,1.5264000000000002
Li2MnF5,1.5265000000000002
Li2V2(SiO3)3,1.5265000000000004
Na2Y3NbSi2(SO6)4,1.5266000000000002
Li5NiO4,1.5268000000000002
LiAgF2,1.527
Li2V(OF)2,1.5271
Na3CaTi3Fe5O16,1.5271000000000003
LiAgF2,1.5272
MgTe4H4(O3F4)2,1.5272
Na4TiSe4,1.5273
LiFe2(BO3)2,1.5273
LiFe2(BO3)2,1.5274
Na14Ti4Zn4Si7S5O48,1.5274
LiCr(PO3)4,1.5275
Rb3TlBr6,1.5276
Li3Fe8(BO3)8,1.5276
Na6La4Ti4Si5S7O48,1.5276000000000003
CuH5C6SO,1.5276999999999998
LiMo2(PO4)3,1.5276999999999998
MgBiMoO5,1.5276999999999998
Ag4Mo2Se3O16,1.5276999999999998
Co2As2O7,1.5277000000000005
Tl4SiSe4,1.5277000000000005
Ba2MgV2(Si2O7)2,1.5277000000000005
LaCoSbPbO6,1.5277999999999992
Li7V(O2F)2,1.5278
MgTi2V2O8,1.5279999999999996
Ba3MgNb2ZnO9,1.5280999999999998
VOF,1.5280999999999998
Fe4OF7,1.5281
Li3VBO5,1.5281999999999996
DyTlS2,1.5281999999999996
Rb3As7,1.5282
MgCr6O16,1.5282
Li2AlNiO4,1.5284
HfMg14CoO16,1.5284000000000004
CdSbS2Br,1.5284999999999995
Cs3IO,1.5285
SbSe6IF6,1.5285
Lu3ScV4O12,1.5285000000000002
Li2FeAgF6,1.5286000000000002
MgV2Ni(TeO5)2,1.5287999999999995
LiVFeP2(HO5)2,1.5288000000000002
LiMo2P2O9,1.5289
Li2CrSiO4,1.5289
Mn4V4O13,1.5289
Li4Co3Sn(PO4)4,1.529
Li32Ti13Cr3O48,1.529
TbTl(PSe3)2,1.5290000000000004
Li3Fe2(SiO4)2,1.5291
LiZn2Fe9O16,1.5292
MgFe4(OF)4,1.5292
SbO2,1.5292
Li2V2SiGeO10,1.5292
CrCuO2,1.5292999999999997
Cs2AlAuF6,1.5293
MnBr2,1.5294
MnAl2P2(H5O4)4,1.5294
Mg6AlCoO8,1.5294999999999996
ZnC2(Br2N3)2,1.5295
BCl(OF2)2,1.5295999999999998
SbSe2NCl8,1.5296
H8PtO6,1.5297
Mg6MnBO8,1.5297999999999998
Na2VO3,1.5297999999999998
USeO5,1.5298
YTlS2,1.5298999999999996
Ca(AuF6)2,1.5298999999999998
TeWSe,1.5299000000000005
Ni3H12C10NO6,1.5299999999999998
CeZr3O8,1.5300000000000002
Ba2PdF6,1.5301
Sm3B(SO)3,1.5301000000000005
TlIn4S5Cl,1.5301999999999998
AlSb(WO4)2,1.5301999999999998
Tl6Si2O7,1.5302
V3Sb(PO4)4,1.5302999999999995
Li2Mo(PO4)2,1.5303
LiMg30MnO32,1.5303000000000004
Ba6LiNb2Ir(ClO6)2,1.5303999999999998
Rb3NaH4,1.5304
Na18Ta8Zn16Si9(S3O16)9,1.5305
Li4Ti2V3Cr4O18,1.5306000000000002
Tl3V(SeS)2,1.5306000000000002
Rb6Br4O,1.5308000000000002
Hg3AsS4Cl,1.5311
NaMg14CO16,1.5311000000000003
MgV4Zn2O10,1.5314
K2NaMnF6,1.5314
Tb2Se3,1.5314000000000003
B2S3,1.5315
Te6MoW3S2,1.5315000000000003
Ba2NbFeO6,1.5316
Ba3La2Ti3Cr2O15,1.5316
Na8Ca3Sn(PO4)6,1.5316000000000003
CsEr2Cu3S5,1.5316999999999998
Li6V3P8O29,1.5317999999999998
LiAuC4S4(OF)12,1.5318
NaMg2Nb2P3(SO8)3,1.5319999999999998
Na3CoO3,1.5319999999999998
Ce2Ta2O9,1.5320999999999998
AsH25(ClO)10,1.5321
Co3C10O9,1.5321000000000002
Li2VCrO4,1.5322
Li2AlNiO4,1.5322
BaMo2P3O14,1.5323000000000002
ZrS4(N2Cl3)2,1.5324
Pr4S3N2,1.5325000000000002
Mg3Co2(Si2O7)2,1.5325999999999995
TiMnO3,1.5326
Li2PtO2,1.5326
LiV(CO3)2,1.5326
Ba2TaCoO6,1.5327999999999995
NbAlBr8,1.5329
Se,1.5329
CaZn2(FeO2)4,1.533
V2CdO10,1.533
Na3CoBPO7,1.533
MgV4(O2F)4,1.5331
Rb2MgFe4O7,1.5331
H17RuN6Cl3O2,1.5332
CuH18C4N10(ClO)2,1.5332
Mg6CoBiO8,1.5332
K2CeCuCl6,1.5332000000000003
Na6Sc5Nb3Si6(SO8)6,1.5333
LiLa4CoO8,1.5333000000000006
MnBr2,1.5334
HIO4,1.5334
K2Ag4Pd3(NO2)12,1.5334
LiVBO3,1.5335
Ba2Sc2O5,1.5335
SmTlO2,1.5337
AlAg(WO4)2,1.5337999999999994
CoSb(PO4)2,1.5338000000000005
Na2TiZnSi(SO6)2,1.5338999999999998
Sr2GdBiO6,1.5339
CaCrF6,1.5339000000000005
MgMn3NiO8,1.5339999999999998
TlSb3(AsS4)2,1.5340000000000005
VOF3,1.5340999999999998
KNdNb4O12,1.5341
LaN3O13,1.5341
Rb2MoAuF6,1.5341
KBaCeBiO6,1.5341
MgZr(MoO4)2,1.5341000000000002
Na5Fe2P2(CO7)2,1.5341999999999998
Cd(In2I3)2,1.5341999999999998
Na14Ti3Zn5Si6(SO8)6,1.5342
Cs4U5O17,1.5343
MgV3CoO8,1.5343
Zn(GaS2)2,1.5343999999999998
Rb3Cu5O4,1.5344999999999998
Na10La4Ti4Si7S5O48,1.5344999999999998
Cs15W7N19,1.5345
Dy2Pt2O7,1.5345
Ba2NbCoO6,1.5345999999999995
LiVBO4,1.5346
In11(SbO8)3,1.5347
CsRbMg6O7,1.5347000000000002
LiDySe2,1.5347999999999995
Ca2TeWO6,1.5348999999999997
Zn3SbN3,1.5349
U(HO2)2,1.5349000000000002
KIn5S8,1.5349000000000004
Li3V2(O2F)2,1.535
VPO4F,1.5351
Zr(PS3)2,1.5351
ZnCo(GeO3)2,1.5351
Li2V2SiGeO10,1.5351999999999997
CaV2O6,1.5352
K3NaMgCr2O8,1.5352
LiFe2C2O7,1.5355
Li3Co2OF5,1.5356
LiP7,1.5357999999999996
P4PtIO10,1.5358
VH8C10N3Cl4,1.5358999999999998
Li3V4(OF3)3,1.5359
Ba4Co(ReO6)2,1.536
SrCaTiMnO6,1.536
CoB10H23C13,1.5361
Mg2CrWO6,1.5361000000000002
Ca(YS2)2,1.5361000000000002
Lu2MgS4,1.5361999999999996
PtO2,1.5362
Ba(AuF6)2,1.5364
La5AgSe8,1.5364000000000004
LiSm4(Mo2O7)2,1.5364999999999993
Ca2H3Br,1.5364999999999998
Li5Fe8(BO3)8,1.5365000000000002
TeMoWSe3,1.5365000000000002
DyInO3,1.5367000000000006
ReSeCl,1.5368
BaV4As4O19,1.5368000000000002
LiTbSe2,1.5368000000000004
CdGeO3,1.5369000000000002
PbO,1.537
VCdCoO5,1.537
NaFe3O5,1.5371
Li6VCl8,1.5371
VMoO5,1.5372
Na4Al2Si3Sn2(SO8)3,1.5372
Sr3CrN4,1.5373
LiVO2,1.5373
La3CuSiSe7,1.5373
K(IO3)2,1.5374
Li4Co5(P3O11)2,1.5374000000000003
DyTl(PSe3)2,1.5375
Rb2MoS4,1.5376
Rb2Cr4O13,1.5376
Li9Mn2Co5O16,1.5378000000000005
Rb2LiMoCl6,1.5379999999999998
LaCuSeO,1.5380999999999991
CsK4TlO4,1.5380999999999998
K2SnO2,1.5380999999999998
La6YbSe10,1.5381
LiVSiO4,1.5381999999999998
RbMnN2,1.5382000000000002
V8Sn16H85(C8O9)4,1.5383
Cs3TlO3,1.5384
SrPrMgBiO6,1.5384000000000002
Mg3VO4,1.538400000000001
LiSm4(Mo2O7)2,1.5385
MgFe4(OF)4,1.5385
Al2Zn2S5,1.5385999999999995
MgCrGaO4,1.5387999999999995
ZnSn2P2O9,1.5387999999999995
MgCr2Fe3Ni(PO4)6,1.5388000000000002
Rb3VS4,1.5391
CrCuO2,1.5391000000000004
Li2VPO5,1.5391999999999997
Tl4CO5,1.5392
Ca4TiN4,1.5392
Li5TiN3,1.5392
BaTm2NiO5,1.5393
Li9V3P8O29,1.5394
CsTaPS6,1.5395
P2PbO8,1.5396999999999998
Cs3Nb2S11,1.5397
BaNb3NO7,1.5397999999999998
Li6AsS5I,1.5398
Na2Mg(CoO2)2,1.5398999999999998
Li7Cr7P6(O8F)3,1.5399000000000005
Na3CaGe3P5SO24,1.5399999999999998
Rb2Ge2Se5,1.54
CaNpH7O8,1.5401
MoP4O13,1.5402
Sm4AlSi5(NO)7,1.5404
YWN3,1.5404
Rb4CO4,1.5404
Er2Pt2O7,1.5404999999999998
Li9Mn2Co5O16,1.5405000000000002
Al5AgS8,1.5406000000000004
Na5TiZn3P3(SO8)3,1.5407
Li8VO6,1.5407999999999995
Sb8(PbS5)3,1.5408999999999995
Na6MgSi6Ge7(SO8)6,1.5409
Y3NbSiS5O24,1.5409
CsTbCdTe3,1.5409000000000002
NaCaCeBiO6,1.541
TlIn5S8,1.5410999999999997
MgV4(PbO6)2,1.5410999999999997
CrBiO3,1.5411
Ba6Zr(Zn3S7)2,1.5411
Zn2SnWO6,1.5411
Co3C7S2O7,1.5411
ZnBiMoO5,1.5412
Mg14NbCoO16,1.5412999999999997
Sr2MgZnMoO6,1.5413999999999994
Ca3Fe6(SnO8)2,1.5414000000000003
GeH10Se3N4,1.5415
CrBiO3,1.5415
Fe3WC14(SO7)2,1.5415
CsLuCdTe3,1.5415
Rb7NaZn2O6,1.5415
LiTi3VO8,1.5416
LiV2O5,1.5416999999999998
Mn2VHO5,1.5417999999999998
RbFe2F6,1.5418
Na4CO4,1.5419
RhSCl5,1.5419
Pr2Te2O7,1.5419
MgTiV2CrO10,1.5419
Cs2GdAuCl6,1.5419
K2Sm2Mg(MoO4)4,1.5419999999999998
FeBiO3,1.5419999999999998
Na21Mg8Nb4Si3(P5O24)3,1.5420000000000005
Ti3(BiO3)4,1.5420000000000007
Tl2PSe3,1.5420999999999996
Mn(CN)2,1.5421
Ba6LiNb2Ir(ClO6)2,1.5421999999999998
TiZn2WO6,1.5421999999999998
Ca3(SbN2)2,1.5422000000000002
NaLiV(OF)2,1.5423000000000002
KNa2NiO2,1.5423999999999998
RbYb2Cl7,1.5425
Sm3NbSe3O4,1.5425999999999995
Mo3(PO4)4,1.5427
Dy9Al5Se21,1.5427000000000004
LiFe2O3,1.5428000000000002
Na14Ca2Ti6Si9(SO16)3,1.5428000000000002
V4O5F7,1.5429
K2RbTlBr6,1.5429
CsVP2O7,1.5429
K3Np(H3O4)2,1.543
LiFe2(BO3)2,1.543
Mg3(GaN2)2,1.5431
BeZn3O4,1.5432
Li6V2O5F2,1.5433
Li7Cr3Fe(PO4)6,1.5433
Li4CoO3F,1.5434
TiZn(BiO3)2,1.5434
La8Sb2Se15,1.5434
Ho2MgCr2O8,1.5435
Al2ZnS4,1.5436
CsCuF4,1.5436
Mg2SnWO6,1.5436999999999994
Li7VO5F,1.5437
Li6Cr3Sb(PO4)6,1.5437000000000003
LiVP2HO8,1.5437999999999998
Tb2MgS4,1.5439000000000005
RbZrCu3Se4,1.5439999999999998
KMnAg3(CN)6,1.544
MgFe4(HO2)4,1.544
Sn(PCl6)4,1.544
KMg30MnO32,1.5440999999999994
LiFe4(BO3)4,1.5443
Mg30VCdO32,1.544300000000001
Y2MgS4,1.5443999999999996
Rb2Sn2Hg3S8,1.5444
Ba(AlTe2)2,1.5444
Na2VBAsO7,1.5444
CdBi12(Cl7O6)2,1.5446000000000004
CeCdO3,1.5446999999999995
MgGe2WO6,1.5448
BaSrGdVO6,1.5448
VPb2Se2ClO8,1.5448
Zr(TlS)4,1.5449000000000002
Li2MnOF2,1.5452
Na2ZnSe2,1.5452
Cs2V5O13,1.5452
CaSiSnO5,1.5452000000000004
Tm(CuS)3,1.5452000000000004
FeP3O11,1.5453
Lu(CuS)3,1.5454000000000008
NaTaSi3Sn3(SO8)3,1.5455
K3V3O8,1.5456
Na2Pd(S4O13)2,1.5456
SrHfN2,1.5456999999999996
Li5VO4F,1.5457
VF4,1.5457
Sr2UNiO6,1.5457999999999994
YSeBr,1.5457999999999998
Si2H2O3,1.5458000000000005
Na6Nb4Al4Si7S5O48,1.5459999999999998
Mn(HO)2,1.546
CrHg3(PbO4)2,1.5460000000000005
BaMg30CrO32,1.5460999999999991
Li4Ti3V2Cr4O18,1.5461
Sr(AuO2)2,1.5463
Na2Mg5Sn3(SO4)12,1.5463
LiCuCO3,1.5463
Na4Mg(WO4)2,1.5463
NaAgF4,1.5463999999999998
K2H4PtC6S6(N3O)2,1.5465
Rb7U8V2ClO32,1.5465000000000002
Li4FeTe(WO6)2,1.5467999999999995
CsHoCdTe3,1.5467999999999995
In7Br9,1.5468
Dy2MgCr2O8,1.5468000000000002
ZnSnO2,1.5469
K3Th2Cu3S7,1.5469999999999997
Fe38O39,1.5470000000000002
Li9Mn2Co5O16,1.5471
Fe2(TeO4)3,1.5471
LiVFeP2(HO5)2,1.5472
Rb4Mg(Se2O7)2,1.5472
LiFeP2O7,1.5473
Ti3N2O3,1.5473
HgSBr,1.5473
K19Ti3Sb29O88,1.5473
K2Mg(CoO2)2,1.5473
ZnGe(SO4)3,1.5473
Si3Sb5N9,1.5473999999999997
CoCO3,1.5474
Li5SbS4,1.5475
Li2TiNi2O5,1.5476
CsDyCdTe3,1.5476
Na3Li3Co2F12,1.5477
MnSn(PO4)2,1.5478
K2Sb4S7,1.5478
Sr8MgP4(IO4)4,1.5478
Ba3WN4,1.5479000000000005
Nb2Ge2O7,1.5479999999999998
CsTmCdTe3,1.548
MgCr2(WO4)2,1.5481999999999996
BaZrTiPbO6,1.5482
Li2TiNi2O5,1.5482000000000005
Mg30CdSiO32,1.5483000000000002
Gd2SCl4,1.5483000000000002
Na4MgO3,1.5485
Hf4Ti(PbO3)5,1.5485
MgFe2W2(ClO4)2,1.5486
Li4MnCo3O8,1.5487000000000002
Ca2Sb2O5,1.5487000000000002
Na2PtO3,1.5488
Ca2Bi10O17,1.5488
Er2MgV2O8,1.5489000000000002
Li6MnS4,1.5491
Er2MgSe4,1.5491
CsErCdTe3,1.5492
Zn3H6C6(IO6)2,1.5493
As2Se3S3(NF3)4,1.5494
Ba3Sc2N4,1.5494000000000003
CaNiO2,1.5494999999999997
Na2Y2Ga2SiS5O24,1.5495
Cs3MnF7,1.5495
Na3Ca2BiO6,1.5495
Na3GdI6,1.5496
KP2AuS7,1.5497
MgMn2(FeO2)4,1.5497000000000003
KGdNb4O12,1.5497999999999998
CuH16C4(N5O)2,1.5498
Sr2TaCoO6,1.5498999999999996
KV3O7,1.5498999999999998
Li2TiNi2O5,1.5499
Ca(WO2)2,1.5499999999999998
Sn5(W4O11)2,1.5501
MgFe6O7F5,1.5501
Mg30NiSnO32,1.5501000000000005
Na30Ca8Nb16Si27(SO16)9,1.5502
BN,1.5503
MgV4As2O13,1.5504999999999995
Sc5(SiN3)3,1.5504999999999995
LiYSe2,1.5505
MgH2(SO4)2,1.5506
Li9V3(WO4)7,1.5507
K2Hg3(GeS4)2,1.5507
CaTaNO2,1.5507999999999995
Li3MnFe3O8,1.5508000000000002
Gd2Au5F21,1.5508000000000002
TeAuCl7,1.5508000000000002
MnPH4N(OF)3,1.5509
Y2MgSe4,1.5509000000000002
RbHfCu3Se4,1.5509000000000002
Li4FeOF5,1.5509999999999995
Li2V3P4H4O19,1.5511
Fe2CoO4,1.5511
La2MgFe2(TeO6)2,1.5511000000000008
Mg3Si4(SnO7)2,1.5512999999999997
CaV2O4,1.5513
Li12Cr3CoP4(CO7)4,1.5513
K4Ba(VS4)2,1.5514
LiMn2F7,1.5514
MgFe6Sb10(IO3)6,1.5514000000000006
Tl3SbS4,1.5515999999999996
Ag4Bi2O5,1.5515999999999996
HBr,1.5517999999999996
Li3Fe8(BO3)8,1.5517999999999998
LiFe4(BO3)4,1.5518
La6Sm2Cr5(FeO8)3,1.5518
RbNb2PS10,1.5518
CrPb2O5,1.5518000000000003
La10Se14O,1.5518999999999998
Ag2Mo3SeO12,1.5519
H4Pd(NO4)2,1.5519
UH6Br2O5,1.552
MnSi7N10,1.5520999999999994
Ca(WO2)2,1.5520999999999994
K2Hg3(GeS4)2,1.5520999999999998
CrFeTeO6,1.5522
Mg6FeSnO8,1.552299999999999
Li2V2OF6,1.5524
BaCaGdBiO6,1.5524999999999998
W(ClO)2,1.5525
BaTi2Fe4O11,1.5525999999999995
Na10La4Si7Ge4S5O48,1.5526
Ca(HoS2)2,1.5526999999999995
K3MoBr6,1.5527
LiAgF2,1.5528
Cd2SiO4,1.5528999999999995
MnH6(NCl)2,1.5529
Zr2N2O,1.553
TlSb(PSe3)2,1.553
NaMn3F10,1.5530000000000002
Sr2La2MnZnO8,1.5530999999999997
V4O7F5,1.5531
Na7Mg2SiGe2P5O24,1.5531
Li2VO2F,1.5531000000000006
Al3Bi5Br12,1.5532
Dy2Au5F21,1.5532
NaMo3P3O16,1.5532
CdSiN2,1.5532999999999992
NaY2Sn2P3(SO8)3,1.5532999999999997
Na42Ta8Zn16Si21(S5O48)3,1.5532999999999997
Cs2KCrCl6,1.5535
K3Sb5O14,1.5535
VCo2BO5,1.5536000000000003
Bi26Mo10O69,1.5536000000000003
V4O5F7,1.5538
Li2V3WO8,1.5538999999999996
BaLa4TiCr4O15,1.5538999999999996
Mg7SiN6,1.5538999999999996
MoS2,1.5539
Li4Fe2C4SO16,1.5539
BiPbBrO2,1.5539000000000005
CaMnAs2O7,1.5539999999999998
Ba2MgAl2(Fe4O7)2,1.5540000000000005
Li3Mo4P9O32,1.5540999999999998
YMg6FeO8,1.5541
Na2TcF6,1.5541
AuF3,1.5542
Cs3Mo2N5,1.5542
Li2Ti2FeO6,1.5542000000000002
K2NaMoCl6,1.5542000000000002
Ca(GaN)2,1.5542999999999996
SbSe2S(NF3)2,1.5543
Na2Ta4Zn4Si3(S3O16)3,1.5543
LiMg6CrO8,1.5545
Li5Fe8(BO3)8,1.5546000000000002
Tb9Ga5S21,1.5546999999999995
La4MgNiO8,1.5546999999999995
Y2Se3,1.5547
TmCuPbS3,1.5547000000000004
Te3Mo5O18,1.5547999999999995
V2NiO6,1.5548000000000002
K4Mg(MoO4)2,1.5548000000000002
Hg6S4Br3Cl,1.555
Rb3TbMgV2O8,1.5552
ErCuPbS3,1.5553
Tb3CuSnS7,1.5553
Cs2NiH12(SO7)2,1.5554
Na9Mg5NbSi3(SO6)6,1.5555
Na4Mg(CoO3)2,1.5555
La2MnGaO6,1.5555000000000003
Ce4SnO10,1.5555000000000003
LiNb(TeO4)3,1.5556
NbNO,1.5556
Ba2SnWO6,1.5556
TaCrO4,1.5556000000000003
LiFe2O3,1.5557999999999996
Na5Ca3TiP3(SO8)3,1.5557999999999998
CaMnF5,1.5558
YMoN3,1.5559999999999996
K3MgScV2O8,1.5560999999999998
Li24Ti11CrO36,1.5560999999999998
Ba3UIn2O9,1.5562
AuS3(O3F)3,1.5564
Li2V2SnO6,1.5564000000000004
RbFeO2,1.5564999999999998
RbCr3O8,1.5565
CdSb6(S2I)4,1.5565000000000002
U(HO2)2,1.5566
Ca2AsI,1.5566
Ag2Mo2O7,1.5567
SbN,1.5567000000000002
Li6Fe5CoO12,1.5568999999999995
Rb2Mo6H2Cl14O,1.5570000000000002
LiFe2O3F,1.5570999999999997
Cs2Se,1.5571
Na4CO4,1.5571
KH2OsNCl4,1.5572
LiV2P3O11,1.5572999999999997
LiV2OF5,1.5573
Cs2Na3TlO4,1.5574
Rb6Ta4S25,1.5576
Fe7Si3(H4O9)2,1.5576
Tl2SI2,1.5577
P2H24PdC12(BrN3)2,1.5577
LiV3O8,1.5577
MgTiV4CoO12,1.5577
Li3Fe2P2(O4F)2,1.5577
CaCr2(Si2O5)4,1.5578
ZnFe8Co3O16,1.5578000000000003
CuP4Se4I,1.5579999999999998
FeAsO4,1.5579999999999998
Tl3PSe4,1.5581
Na2Cr4O13,1.5581
Na3Np(H7O6)2,1.5582
Na2U2O7,1.5582000000000005
LuCuPbS3,1.5582000000000005
Ba5Y8Mn4O21,1.5582000000000005
LiMn(PO3)4,1.5583
Zn(BiO2)2,1.5583999999999998
P2H19C6I7N,1.5585
Li4Mo3O8,1.5585000000000004
CaBiWO5,1.5585999999999998
K2MgFe4P6(O4F3)4,1.5585999999999998
Li2V(OF)2,1.5585999999999998
Ni2P2O7,1.5586999999999995
SrLaTiMnO6,1.5587
Na2U2O7,1.5587999999999995
LiVF5,1.5588000000000002
Li4VCr3O8,1.5588000000000002
Na14Mg5Si6Ge3(SO8)6,1.5588000000000002
La3Ti5Al15O37,1.5589000000000004
Nb2NiO6,1.5589999999999995
LiFeOF2,1.559
Er2Au5F21,1.559
TiVO4,1.5591
PdCl2,1.5592
Cr3(OF)2,1.5592
InSb3Pb4O13,1.5594
Er(ClO2)3,1.5594
Ti2In3FeO10,1.5595
V3ZnP3O13,1.5596
MgCu2(WO4)2,1.5597000000000003
PrN,1.5598
Sr3LaMn2(WO6)2,1.5598999999999998
Eu(BH4)2,1.5599
LiFe2(BO3)2,1.56
AuSCl5,1.56
K6Na2V2S7O30,1.56
Li2Nb2Fe3O10,1.5600999999999998
Nb3AgO8,1.5603000000000002
Ta2Zn2SiS5O24,1.5603000000000002
MgCr2(ClO)4,1.5604
Na2Ga4Si3Sn4(S3O16)3,1.5604
IrBr3,1.5604000000000002
NaNbO3,1.5604000000000002
Hg2MoO4,1.5605
V3Fe3(TeO8)2,1.5605
MgFe4(OF)4,1.5605999999999998
Mg2FeSbO6,1.5606
ZnBiWO5,1.5606
Zn3H24C12Br11O6,1.5606
Na3VSiCO7,1.5607000000000002
NaYTiSi(SO6)2,1.5608
Ge3(TeO6)2,1.5608999999999995
Li5BiS4,1.5608999999999995
MgFe2Mo2(ClO4)2,1.561
KMnP3HO10,1.5610000000000002
Pr5C2Cl9,1.5610999999999997
Nb3(OF)5,1.5611000000000002
Cs2LiCr(CN)6,1.5612
Na6MgSi4Sn3(SO12)2,1.5613
Sn2Sb2Pb4O13,1.5613
CsPPbSe4,1.5613
Li7Mn2(CoO4)3,1.5614
Ba2GdCl7,1.5614999999999997
Cs2AgAsS4,1.5615
Rb3NaMg(MoO4)2,1.5616
H6PdC2(SO3)2,1.5616
K2Nd2Mg(SO4)4,1.5616
Li3CrBO5,1.5616000000000003
NaV2O5,1.5617
Ba2YCoO5,1.5617000000000003
Li2ZrN2,1.5618999999999996
NdCu(WO4)2,1.5619
H8PdS8(NO13)2,1.5619
Zn2BiWO6,1.5619999999999998
Sn7(SO10)2,1.5620999999999998
LiDySe2,1.5621999999999998
Na5Fe2P2(CO7)2,1.5622
CoGeO3,1.5622999999999996
Rb2LiTlCl6,1.5623
Na2Ti6Zn2Si3(S3O16)3,1.5624000000000002
Na3YSi3Ge3(SO8)3,1.5625
MgCo2(HO2)2,1.5625
UP2H36C12Br2(N3O2)2,1.5625
Li5SbS,1.5625
La4Cu4Se3SO4,1.5626000000000009
LaTa2AgO7,1.5627
Na9Mg5Nb7Si9(SO8)9,1.5627000000000002
MgGe3P2(SO6)4,1.5628000000000002
SbPb2S2I3,1.5628000000000002
TlSn2I5,1.5628999999999995
Rb3GePSe7,1.5629
Sr2AlGaNi2O7,1.5629
NaFe2H3(SO4)2,1.5629000000000002
LiV2OF7,1.563
Ba3Na2Ti3Nb2O15,1.5631
Zr2N2O,1.5631000000000004
Tl6TeO6,1.5632999999999997
Ag3AuS2,1.5633999999999997
KCr3O8,1.5634
CsSi,1.5634
MgMnV4NiO12,1.5634
Na3CrAsCO7,1.5635000000000003
NbCoO4,1.5636
Tl3VSe4,1.5636
LiVPO5,1.5636
Sr(InSe2)2,1.5637
LiFe2(BO3)2,1.5637
LiFe2(BO3)2,1.5639
YVO3,1.5639000000000003
Na2In2Mo5O16,1.5639999999999996
CsRbMg14O15,1.5640999999999998
Li2VO2F,1.5641999999999996
LaSO,1.5641999999999996
Li3VOF4,1.5642
Li4Ti2V3(Fe2O9)2,1.5642
Lu3Fe5O12,1.5642
MgFe4O5F3,1.5643999999999996
V3Co10AsO20,1.5644
H5NO2,1.5646
BaCaFe4O7,1.5647000000000002
MgH16C4S4N2(O4F3)4,1.5647000000000002
Li7Fe4(P2O7)4,1.5648999999999995
Ba3Ca2(SiN3)2,1.565
CsCuS4,1.565
KUVO6,1.9565
Mo3(AsO4)4,1.9565
LiMn2F7,1.9566
Li2VF6,1.9566
MgV2CoO7,1.9566
Cr3H4NO8,1.9566
SeN,1.9567
MoPCl5O3,1.9567
Ce2ZrO6,1.9567000000000003
KCa2Nb3O10,1.9568
CeZr11O24,1.9568000000000003
Rb2NaRhF6,1.957
ZrSeO,1.9571
Nb12WO33,1.9571
SN,1.9571
Li3VBPO7,1.9572
Mo(WO4)2,1.9572
Na4Mo(NO)2,1.9572
SbO2,1.9573
SrZnP2WO8,1.9574
Na3ZnGe3P5SO24,1.9574
TaBi3O7,1.9575
LiMnF4,1.9577
WI2,1.9578
LiLa2HO3,1.9578
VH15C4S2(NO5)2,1.9578
LiVH2OF5,1.9578
La6Sb4(SO4)3,1.9578999999999995
Na5La3Si3Ge(SO8)3,1.9579
LiVPO5,1.9579
K2TeBr6,1.9579
Co4Ge(CO)13,1.958
YWN3,1.958
K2NbCuS4,1.9582
IrCl3,1.9582
AgMo3(PO7)2,1.9584
GeI4,1.9584
Mn4P2O9,1.9584
MnH16C4N(OF2)2,1.9584
K2NiHgF6,1.9584
Ho2MgSe4,1.9584
Co3Ge(CO)10,1.9585
ZnCoF5,1.9585
Cs6Ho21S34Cl,1.9586
BH11AuC4IN2,1.9587
RbHoSe2,1.9587
LiY2(FeO2)4,1.9588
Li5AuO4,1.9588
Li3V2(PO4)3,1.9588