formula,band_gap (MP)
NdNb3O9,1.8044
Li8NiO5F,1.8044
Li5Mg11(WO4)12,1.8046
Na2Sb4O11,1.8046
Cs2HgTe,1.8046
LiCu(PO3)2,1.8046
Li2VF6,1.8047
BaSr4Ti5O15,1.8048
LiCuS,1.8048
CaNbFeSnO6,1.8048999999999995
Pr3SiAgS7,1.8048999999999995
Li4V2Si(PO6)2,1.8049
NaNbO3,1.8049
Ba2PrWO6,1.8049
Na5TiIn3Si3(SO8)3,1.8049
WNCl6,1.805
TlHgF3,1.805
Li6V2OF11,1.8051
NaGd3Ti2(SbO7)2,1.8053
Cr2O5F2,1.8054
K2U3(TeO7)2,1.8055
Hg3AsS4Br,1.8055000000000003
Mg14CrCdO16,1.8055999999999992
Zn3Cd3(TeO6)2,1.8056
Mg30BCO32,1.8056
Mg30NiSnO32,1.8057
Gd(C2N3)3,1.8058
Sr2HN,1.8058
Mn2O7,1.8058000000000003
MgScNi2SbO6,1.8058000000000003
KSb(PSe3)2,1.8059
CaFeO2,1.806
Nb15MoO40F,1.806
CaMg30CoO32,1.806
Te6Mo3WS2,1.8061
HN,1.8061
Li2CuPO4,1.8063
CoB10H31C18O,1.8064
Cr2Hg2H2O9,1.8064
SiSnGe(SO6)2,1.8064
Y2FeSbO7,1.8064
Sr6La14Mg7Ti13O60,1.8065
Li3Fe8(BO3)8,1.8066
NdI3,1.8067
Sr4HfTi3O12,1.8067999999999995
K3CrC3N3O4,1.8068
Li3As7(H3N)13,1.8068
AgIO3,1.8069
MnV4NiO12,1.8069
SrFeMoO5,1.8071
Cs2H4RuNCl5O3,1.8073
Na2TaIn3Si2(SO6)4,1.8073
K2PrCuI6,1.8073
Ba2SrTi3O9,1.8073
NaMg2Ti2PS5O24,1.8074
LiVOF3,1.8075
HfTi(SnO3)2,1.8075
LiCrPO4,1.8077
Li9Fe3(OF7)2,1.8078
SrIn2O4,1.808
Sr4IBrN2,1.808
P3W2O13,1.8082
Li4V3OF11,1.8083
Na3Ni2SbO6,1.8083
Na2W4O13,1.8085
UCr(HO3)2,1.8085
CoSn(PO4)2,1.8086
NiH2SeO5,1.8086
Zn2W3O8,1.8086
Fe4H14O13,1.8087
LiVF4,1.8087
Sr2SmBiO6,1.8088
KTlBr4,1.8089
Na2NiO2,1.809
Cs2TlCl5,1.809
WS2,1.8091
Ba2TbMgBiO6,1.8091000000000004
KBaMnO4,1.8093
Na14Zn2Si9Ge6(SO16)3,1.8094
Hg2P2S7,1.8095
LiLa4Ga2(FeO6)2,1.8097000000000003
Dy3CuGeS7,1.8098
Sr2LiReN4,1.8099
In2Si2O7,1.8099
Na3CaFe4(SiO3)8,1.8099
Na10Ga4Si7Ge4S5O48,1.8099
Sr2La2MgMnO8,1.81
Ba2Fe2Se2OF2,1.81
Al2Sb5(Se2Br3)3,1.81
Co2SnC8SeO8,1.81
LiVF5,1.8101
Na6CaSi2Ge3(PO6)4,1.8101
Ca2BiWO6,1.8101000000000005
Ca(BiO2)2,1.8102
CsMg30MnO32,1.8102
Ba4PtO6,1.8104
Na2YNb3Si4(SO12)2,1.8105
Na6U5V2O23,1.8105
Ba2TbBiO6,1.8106
NaLiMg14O15,1.8107
V2(OF)3,1.8107
USiPbO7,1.8107999999999995
TlI,1.8107999999999995
LiVF5,1.8108
TiP2(S4Cl)2,1.8109
K2Ge2Se5,1.811
Fe3C9Se2O9,1.811
Te4Mo3W(SeS)2,1.8111
Na5CaSiGe3P5O24,1.8111
RbBaMnO4,1.8112
RbV3O8,1.8112
Cs2TcF6,1.8113
SrCePrCoO6,1.8113
LiH2BrO5,1.8113
LiVF4,1.8116
Rb2NdCuI6,1.8116
Rb2NaMnO4,1.8116000000000003
Sb6O13,1.8116000000000003
Sr17(Ta5S21)2,1.8117
BaFe2F7,1.8117
V2OF5,1.8117
MgFe6(O2F)4,1.8119
NaTi2Al2P3(SO8)3,1.8119
Li4Mn(SiO3)3,1.812
VAg2(PO4)2,1.812
Tl6SBr4,1.8121
YSeO3,1.8121
Rb2NaTlCl6,1.8121
Cs2Na8U8Mo5O44,1.8121000000000005
NaNdSe2,1.8121000000000005
Li4Nb2Fe3Te3O16,1.8121000000000005
LiVF5,1.8122
Sr(YS2)2,1.8122000000000005
SrMgNiH4,1.8124
LiSbTe2WO12,1.8125
Zr3TePb4O13,1.8126
Li4V3OF11,1.8126
Na2TeO4,1.8126
BrCl,1.8129
Na2LiLa3Ti6O18,1.8129
Na42Nb16Zn8Si33(SO48)3,1.8129
TiPbO3,1.813
Ga3Bi5Cl12,1.813
BaMg14NbO16,1.8130999999999995
Cr2C13SN3(O2F)5,1.8131
Si(PbSe2)2,1.8131000000000004
CrAsO4,1.8132
Ca4SnS6,1.8132
CaFe6(OF2)4,1.8132
Ag2Hg(SeO3)2,1.8132
BaGe2O5,1.8132
Li10Mn2V3Cr3O16,1.8132999999999997
SbO2,1.8132999999999997
Li4V3(FeO6)2,1.8134
Fe2NF6,1.8135
Li4V2Si3O10,1.8135000000000003
BaSrLaBiO6,1.8136
Ca10Al6Si13N30,1.8137
Cs6Br4O,1.8138
BiF5,1.8138
Na4MgV2O6,1.8138
Li3V2(PO4)3,1.8138
Li2VFe(P2O7)2,1.8139
SiC,1.8139000000000003
K3ReClF6,1.814
K2Nb4Fe2O13,1.814
CsVFeF6,1.814
Li10Fe(SiO5)2,1.8141000000000005
TiNiO3,1.8142
NiO2,1.8142
Li2VO2F,1.8143
LiMnOF2,1.8143
BaSr2In6O12,1.8143
Na2Ti4Nb4Si7S5O48,1.8145
Li3Sb2P5O18,1.8145
Mo(PO3)4,1.8145
LiCo(PO3)5,1.8146
H6PbCI3N,1.8147
MgV4FeNiO12,1.8148
RbVSO6,1.8148
Mg(ScS2)2,1.8148
AlCuO2,1.8148
BS4N4F3,1.8149
WNCl3,1.8151
Fe2PCO7,1.8151
LiV2F7,1.8153
YMo(WO4)2,1.8154
Na3CaNb5Si6(SO12)3,1.8154
MoH4O5,1.8154
Sr2MgTiFeO6,1.8155
MoH12C2(S2N)2,1.8155
YMgMo(WO4)2,1.8156
Ru(C4N3)2,1.8156
Ni3Ag2P3HO12,1.8156
LiMnF4,1.8157
FeO,1.8157000000000003
KVS2O9,1.8158
YMgCu(WO4)2,1.8158
Na3SiTe3,1.8159
SrMg3GeN4,1.8159
W3O8,1.8159
Na3Sr4La3Ti10O30,1.8159000000000003
KAuSe,1.816
RbB6S2(Cl3O2)2,1.816
Sr(TbS2)2,1.8161
SbSO4F3,1.8163
AsS7IF6,1.8164
UV2O8,1.8164
Mg14CuSnO16,1.816400000000001
Mn3V2O8,1.8165
K2Sn3(SbS5)2,1.8166
Mn2H30C9N3Cl7,1.8166
Mg14CrCuO16,1.8166
MnP3(HO2)6,1.8167
Na3IO,1.8168
BaSrTbBiO6,1.8169
LiCrPO4F,1.8169
La2MgSe4,1.8169000000000004
Ba2PrGaS5,1.817
CuAsPbO4,1.8171000000000004
Mn5H8SO12,1.8172
Dy4Te3N2,1.8172
GaCuCl4,1.8173
ErCuS2,1.8173
NbFe3Ni2(PO4)6,1.8176
CsPbBr3,1.8178
Sr2Ti6N2O11,1.8178
Gd2FeSbO7,1.8178
NbSb3O8,1.8179
LiMnF4,1.8179
LiY2(FeO2)4,1.818
Mg6SiCO8,1.818
Cs2CeO3,1.818
Rb5FeO4,1.818
Sc2MnNiO6,1.8181
KNa2BN2,1.8181
Ba2Fe2S2OF2,1.8181000000000005
Li2AgAsF6,1.8182
Ru(C4N3)2,1.8182000000000005
Ta2Tl3Cu3S8,1.8183
Li4MnV(PO4)3,1.8184
Yb(InSe2)2,1.8185
Na5Fe3Ag2(As2O7)4,1.8185
Na3VS3O,1.8185
Li2VFe(P2O7)2,1.8187
Tb2TeS2,1.8187
Sb24(Cl7F17)5,1.8188
ZnSeO4,1.8189
K3CrO8,1.8189
Li2VOF4,1.8189
Nd2Si2PbSe8,1.819
AuSCl7,1.8191
BaSrPrVO6,1.8192
FePO6,1.8192
Mg(SbO2)2,1.8192000000000004
LiCoP2O7,1.8192000000000004
CsMnH24(SO10)2,1.8193
Ca(MoO2)2,1.8193000000000008
K2PtCl4,1.8196
Ce6Y2O15,1.8196999999999992
VSeO4,1.8197
Ba2LiReO6,1.8198000000000003
Li2V3SbO8,1.8199
MnTe2O5,1.8199
V3(H3O5)2,1.82
NaScSiSn(SO6)2,1.8201
BiW2(Br4O)2,1.8201
Na2MgGe2(SbO5)2,1.8201
NaFe3H6(SO7)2,1.8201
MgFe2(NiO2)4,1.8202000000000005
Al3BC3,1.8203
MgZn2AgWO6,1.8204
Na12Mg5Nb(PO4)9,1.8204
PrTl(PSe3)2,1.8205
Li3TiFe3O8,1.8205
MgMo2(PO5)2,1.8205
MgVFe(P2O7)2,1.8205
Tl2GePbS4,1.8205000000000005
AlMo3F15,1.8206
VZnSiO5,1.8206
Sr5Ti7O19,1.8208
Na11La7Th2Ti20O60,1.8209
Ce10Y22O53,1.8209
Li2VF5,1.8209
LiLa4Ga2(FeO6)2,1.821
Cs2UO4,1.8211
NaPO4,1.8212
Ba2Ti5(Bi2O9)2,1.8213
Cs2NbAgSe4,1.8213
Zn2(PS3)3,1.8214
LiV(OF)2,1.8214
MgFe4(PO4)4,1.8214
Mg30ZnSiO32,1.8216
ScNb3(PO4)6,1.8216
Rb8W13O43,1.8216
Na2SeO2,1.8216
Pt(SCl3)2,1.8217
SrCaYBiO6,1.8217000000000003
TaIn3Se4,1.8218
Na4Mg(GeSe3)2,1.8221
Be3Cr2(SiO4)3,1.8222
CuPN2,1.8222999999999985
LiMoO2,1.8222999999999996
Na2Mg2Fe2Se3(SO8)3,1.8223
Ho3CuSiS7,1.8225
CuAs7PS7Br,1.8225
W2C7Br4O7,1.8225
NaYSnP2SO12,1.8225
SnPS3,1.8226
LiCr4(PO4)3,1.8226000000000004
Ca4PdO6,1.8227
Li3Fe4(BO3)4,1.8227
BaSrBiSbO6,1.8227
VAg(HO2)2,1.8228
CoP3H16N4O11,1.8228
Nb2FeO6,1.8229
Ba2Mg(WO4)2,1.8231
K3NaRe2O9,1.8231
Ba3V2P6(HO4)6,1.8233
USiH2PbO7,1.8234000000000004
MgV3O8,1.8235
SbTe(IF2)3,1.8235
Rb3RuF6,1.8235
Cr3(FeO6)2,1.8236
Cs2CeCl6,1.8236
Ba2InBrO3,1.8237
Na6Sn2O7,1.8237
Ba2YBiO6,1.8237
Na3AuO3,1.8237
Ti3MnO8,1.8237
Na3CaNbSi(PO6)2,1.8237
NaNbO3,1.8238
WC4(BrO2)2,1.8238
KHgC3(SN)3,1.8239
Na7Ca2Ti2SiP5O24,1.824
P4Se5,1.8241
NaV3P2O13,1.8241
SrLaMgMn2O6,1.8241999999999996
Sr2MgV2(Si2O7)2,1.8241999999999996
Li4VF8,1.8244
LiTiCoO4,1.8244
V2P2PbO10,1.8245
K2NdCuI6,1.8245
Sr(ErS2)2,1.8246
CaPbI6,1.8246
SrV3P4O17,1.8247
NaCaNbP2SO12,1.8247
Mo6NO18,1.8247
Ba2CaWN4,1.8248
MgV2(SiO3)4,1.8248999999999995
Ce4Y2O11,1.8249
Na2Nb3AlSi4(SO12)2,1.8252
Rb2NbCuS4,1.8253
Li3Fe2(SiO4)2,1.8254
Rb2Sn3(SbS5)2,1.8255
Cs2TlInBr6,1.8255
Sr(HoS2)2,1.8256
MnH16C4(NCl2)2,1.8256
Li3MnFeCo(PO4)3,1.8256
Ce4SnO10,1.8258
K2YCuI6,1.8261
V2Co(HO2)4,1.8264
Cs2VF6,1.8264
Na2H(CO2)2,1.8264
Pr2NiPtO6,1.8264000000000005
Mg2V3O8,1.8265
KZnCl3O2,1.8267
TlCr3O8,1.8267
Sr2HoBiO6,1.8268
K9Ta2VS12,1.8268
Cs2Se,1.8269
KAgTeS3,1.8269
Ce7ZrO16,1.8269
SrCaYBiO6,1.8269
Mn(BH4)2,1.827
H6PbCI3N,1.8271
NiH18C4S6(N2O)4,1.8271
H13RuC5SN2(ClO)3,1.8271
Ca2TaBiO6,1.8271999999999995
Cd(FeO2)2,1.8272
CrPO4,1.8272000000000004
TlSnPS4,1.8272000000000004
Ba3In2MoO9,1.8273
SrV2(PO5)2,1.8276
NaSr2LaTi4O12,1.8277
Ba2LaBiO6,1.8278
LiMnF5,1.8278
K3GeSe3,1.8279
Cd3PCl3,1.8279
Re2Pt(CO)12,1.8279
Zr2Sb2Pb4O13,1.8279000000000003
Cr(Si2O5)2,1.828
CoP3H33C11I,1.828
CsFeCoF6,1.828
LiNdS2,1.8280000000000003
CrFe(PO4)2,1.8281
V(Bi5O8)5,1.8282
SrUO4,1.8282
H24PdC8(NCl2)2,1.8282
HfFeO3,1.8282000000000005
SbCl3F2,1.8283
NaMo3H29C8(BrO2)4,1.8284
LaMoN3,1.8284
La2PbSe4,1.8284
CaTiO3,1.8285
V4OF11,1.8285
MgPdF6,1.8285
Nb2Co4O9,1.8285
Li2VP4O13,1.8286
Mg6AlBO8,1.8286000000000016
Sr3C3N5,1.8287
SrLiTi4CrO11,1.8287000000000004
Ca3Cr3(AsO4)4,1.8288
Sr6Li2Cr2N8O,1.8288
TaTiCrO6,1.8289
NiSn2(OF)6,1.829
As2Pb4S6ICl,1.829
Mg30CrSiO32,1.8290000000000008
RbAuC4S4(OF)12,1.8291
V2Co2O7,1.8291
SmCu(MoO4)2,1.8293
Hg3Se4O5,1.8293
RbMg6SiO8,1.8293
Na10Ca3Ti5(PO4)12,1.8293
Na3V3O8,1.8293
BaSr3Lu2(BiO6)2,1.8294
Na2CaTiP2SO12,1.8294
K4Ni(NO2)6,1.8294
BaFe2(SeO3)4,1.8294
Pr3AgGeS7,1.8295000000000003
AsPb2S3I,1.8295000000000003
Rb2Hg(BSe)9,1.8297
NaLiZnS2,1.8298
CaAlFe3O7,1.8298
NbFeO4,1.8298000000000003
CsCu2Cl3,1.8299
LiMn2PO5,1.83
Na3MnO4,1.8301
H12RuC4S2N(ClO)3,1.8301
BaTi2O5,1.8301000000000005
MgV2H2O5,1.8302000000000005
GaN2OF5,1.8303
K2Pd(NO3)4,1.8303
H9RhC5NO5,1.8303
Na2Ga8SiS11O48,1.8304
Mg30AlCO32,1.8304
KY(PSe3)2,1.8305
Pr2Si2PbSe8,1.8305
La2MgZr2O8,1.8306
Na6Ti4Si7Ge4S5O48,1.8306
Cs2ScCuF6,1.8308
KGdS2,1.8308
LiV2OF7,1.8309
Cd(AuF6)2,1.8309
Na4TiZnSi2SO12,1.8309
Bi4Te2Br2O9,1.8311
Ag2H2C2N6O13,1.8311
Tm2PbSe4,1.8312000000000004
CsMg6BO7,1.8313
Nd8Sb2S15,1.8313
LiMoO2,1.8314000000000004
SbXeO2F7,1.8315
Na3CoO3,1.8316
LiCa2Nb3O10,1.8316
MgFe6(OF2)4,1.8317
Sr2Mn2SeO4,1.8317
U2H12C2Se3(N3O8)2,1.8317
DyFeGe2O7,1.8318
Ba2CrO4,1.8319
Tl4HgBr6,1.832
BrCl,1.832
MgTi(GeO3)2,1.832
Cd2Bi6O11,1.8321
Na21Ca8Nb4Si3(P5O24)3,1.8322000000000005
Rb2AlTlI6,1.8326
K2LaNb5O15,1.8326
Li4CrFe3O8,1.8327
Mg3CdO4,1.8327
Pr3Fe5O12,1.8327
CsGdS2,1.8329
Mg30ZnSnO32,1.8329999999999995
SbHC2NCl11,1.833
K3Fe5(PO4)6,1.833
Nd3Fe5O12,1.8330999999999995
Rb2Sb4O11,1.8332
LiCo2OF3,1.8332
Gd2W2O9,1.8332
Yb2Te5O13,1.8334
Ba9(AuO6)2,1.8334
NaLi2IrF6,1.8335
Na6Mg2Nb4Si6(SO12)3,1.8335
RbFeO2,1.8335000000000004
LiMnF4,1.8336
MgFe4(PO4)4,1.8337
KUNbO6,1.8338
Pr4As2S9,1.834
NaMgTiP(SO6)2,1.834
SnH12Pt(N2Cl3)2,1.834
Ti2Sb2O7,1.8340000000000003
TiFeO3,1.8341
Li2Fe5Si5O16,1.8341000000000005
Na12Nb2Zn4Si6(SO12)3,1.8343
Li6Fe5WO12,1.8343000000000005
NiP2H26C8S4(NO)2,1.8343000000000005
Mg14CrBiO16,1.8344
CdGe7N10,1.8344
Sr4MgFe4O11,1.8344
LiSb(MoO4)2,1.8344
KMg30SbO32,1.8345
LiV3(OF2)4,1.8348
Li2CuAg,1.8349
LiVSiCO7,1.8349
Li3CrF6,1.8349
Na10Zn6Si3Ge2(S3O16)3,1.835
BaH8PtC4(NO)4,1.835
Ba3Si3N5ClO,1.835
VAg2PO6,1.835
CeTh2O6,1.8351
NaFe2(PO4)2,1.8351
RbFeO2,1.8352
BaTb2PdO5,1.8352
Na6Ca3U2O12,1.8352
Rb4CO4,1.8353
Mg3Mo2O7,1.8353
LiMn2OF3,1.8355
CrCoH18(CN2)6,1.8356
Na3FeO3,1.8358
Dy2TeS2,1.8358000000000003
NaLaTiP2SO12,1.8359
Ba2Bi6O11,1.8359
Mg14CrNiO16,1.8359000000000003
LiV3(TeO6)2,1.8361
MgSbS2NF6,1.8362
CuAs7PS7Cl,1.8362
Na2Pd(NO2)4,1.8363
Tl4GeI6,1.8363
LiP(WO4)2,1.8364
Ca3Sc3N5,1.8365
MgSn(GeO3)2,1.8365000000000005
Cs4SiTe4,1.8366
Na5La2SiSn2P5O24,1.8366
Dy2Ti2O7,1.8367
Na4Ca2In2SiS5O24,1.8368
UTeO5,1.8368
RbB6(HO)8,1.837
Fe4Co3(PO4)6,1.8370000000000009
Sr2LiLaTi4O12,1.8370999999999995
Hg3(SF)2,1.8372
Ba3LiTi5Nb3O21,1.8373
K8MgCo2(Mo4O15)2,1.8373
MgNiO2,1.8374
Na2CeWO6,1.8375
Na2W2O7,1.8376
RbPS3,1.8376
Na6Ca8Ta16Si15(S7O48)3,1.8376
PrScS3,1.8377
LiVOF3,1.8378
YMgMo(WO4)2,1.8378
CaTe3O8,1.8378000000000003
CaScCu3Se4,1.8379
LiNbFeO4,1.8379
KNaMg14O15,1.8379000000000003
MgIn2O4,1.838
TaAlO4,1.8382000000000005
LiV(WO4)2,1.8383000000000005
Li2Ti3MnO8,1.8384
Y2Sb2O7,1.8384
La3NbSiS5O24,1.8384000000000005
Si2H2O3,1.8384000000000005
Cs2U4Nb4O23,1.8385
Li2VOF3,1.8385
Li8VO6,1.8386
Li3TiFe3O8,1.8386
V2ZnO5,1.8387
CaY5(MoO6)2,1.8387999999999995
Li2MnPCO7,1.8388
Na6Mg4Ta20Si21(S5O48)3,1.8389
NaTa3Zn(PO4)6,1.8389
SiC,1.8389000000000009
Na6Sn2O7,1.839
Cs2PdCl4,1.839
Na4Zn3GeP2(SO6)4,1.839
NaTbSe2,1.839
LiV2F7,1.8391
Na2Y4In4SiS11O48,1.8391
Na2ScCuCl6,1.8393
K3Er7S12,1.8393
LiMnF4,1.8393
LiV2F7,1.8395
KHgSbS3,1.8396
VOF3,1.8397
CdS2(NO7)2,1.8397
Pr6Cd(SiS7)2,1.8397
Ba5Mn3O12F,1.8397
Cs2ZrI6,1.8398
SbCl5,1.8399
BaTiFe3(BiO4)3,2.0643
Ga3Sb7(S4Cl7)2,2.0643
Na8Al11Si13(AgO16)3,2.0644
CsAuC2,2.0644
ZrNF,2.0644000000000005
H6S(NO2)2,2.0645
MgP4(Br3O)4,2.0645
FeC3SeO3,2.0646
MgV2(Ga2O5)2,2.0647
CsTbCdSe3,2.0647
Na2Sc3Ta5Si6(SO8)6,2.0647
Co3Ag2(P2O7)2,2.0647
SrFe2(P2O7)2,2.0648
NaSm3Ti2(SbO7)2,2.0649
YBiO3,2.0650000000000004
Na6Y2Nb6Si9(SO16)3,2.0651
Mg7VFeMo15O56,2.0652
K3HPdS2(ClO3)2,2.0652
LaTiNbBi2O9,2.0653
Li4FeSb(WO6)2,2.0653
P4Se3Br2,2.0653
Na3FeBAsO7,2.0654
LiVF4,2.0654
ZnSeO4,2.0654000000000003
MnTe2O5,2.0655
Pr2MgSe4,2.0656
ZnNiAs2O7,2.0657
Co(AsO3)2,2.0657
Li4Ti11O24,2.0657
HgTe5H36C12N3(OF5)5,2.0657
Ti4FeBiPb4O15,2.0657000000000005
Lu2SeO2,2.0658000000000003
Li3Fe4O3F5,2.0659
Fe3P2(HO)16,2.0659
LiErS2,2.0659
P4WO13,2.0661
V3(PO4)2,2.0661
H4CN4O,2.0661
La8Te3SeO8,2.0662
Na3FeAsCO7,2.0662000000000003
CsHgCl3,2.0663
Mg(CoO2)2,2.0664
Zn3Ni3(AsO4)4,2.0665
KCaSmSeO6,2.0666
K2Mg(H2N)4,2.0666
YMg30BO32,2.0667
Sm6Mg(GeS7)2,2.0667
Ca2CoTeO6,2.0668
H5CN5O6,2.0669
Zn2BiWO6,2.067
Cd(W3Br7)2,2.067
Hf2N2O,2.0671
H5CN5O6,2.0671
Cr2H2Pb4ClO10F,2.0672
SbN2Cl3F2,2.0672
Sr2CaTi3O9,2.0672
Na3Ca2Ge2P3(SO8)3,2.0673
Ho2MgSe4,2.0673
Cs2CuBr3,2.0673000000000004
LiV(SiO3)2,2.0674
Li2VAsCO7,2.0674
KH2N,2.0676
Li6CrFeP2(CO7)2,2.0677
KMg30CoO32,2.0677000000000003
HgS2(NO3)2,2.068
Ba6Bi2(TeO6)3,2.0681000000000003
Hf2N2O,2.0681000000000003
VPO5,2.0682
K4SrU3O12,2.0683
Nd2MgPtO6,2.0683000000000007
Ba(LaS2)2,2.0684
U(H2O3)2,2.0684
KVP2O7,2.0684
V3ZnO7,2.0684000000000005
NaCaTi3P3(SO8)3,2.0685
Li2Ti3MnO8,2.0686
Sr4Li(BN2)3,2.0686
Mg6ZnCoO8,2.0686
Cs3KRe6C6(S4N3)2,2.0687
MgV2(PO5)2,2.0687
BaBr2O,2.0687
NaTa2Zn2P3(SO8)3,2.0688
NbTlCl4O,2.0688
ZnCr2O4,2.0688000000000004
Cs2HgO2,2.0689
Rb2Nd2Mg(WO4)4,2.0689
NaCoO2,2.069
Na5LaO4,2.069
ZnH16(IO8)2,2.069
Li5FeHO4,2.069
Li2VOF4,2.0691
BaHS2O3,2.0692
Li3W2N5,2.0692000000000004
Pr4(SiS4)3,2.0692000000000004
CsCa2Nb3O10,2.0693
Co(BO2)2,2.0693999999999995
LiFe2OF3,2.0694
Al2V3(SiO4)3,2.0694
CuCSN,2.0695
Bi24B2O39,2.0695
CeZr4O10,2.069500000000001
SrMg30CoO32,2.0697
GdPaO4,2.0697
Fe5Bi4O13F,2.0697
BaSrCeTiO6,2.0698000000000003
K4BaU3O12,2.0699
CsCdAuS2,2.0699
Sr2LiFeO3F,2.0699
BaP3HNO9,2.0700000000000003
TaTl3(SeS)2,2.0701
UH10CSe2(NO2)4,2.0701
Na5Mg3SnP3(SO8)3,2.0702
Li2TiO3,2.0702000000000003
K2MnI4,2.0705
CsV3O8,2.0706
LiV(CO3)2,2.0707000000000004
Li2Mn2P2(H4O5)3,2.0708
LaI3,2.0709
Li2Cr4P4O15,2.0709000000000004
TlFe(SO4)2,2.071
Li4FeCo3(PO4)4,2.0711
BaMnP2O7,2.0712
Ti3NiSn2(PO4)6,2.0712
TeMoWSe2S,2.0712
Ca2P4H11NO18,2.0712
NbSeCl9,2.0713
RbCu2I3,2.0713
Na10Nb4In4Si9(SO16)3,2.0713
H6PbCBr3N,2.0713000000000004
Pr2MgS4,2.0714
VHO3,2.0714
Sb8Cl2O11,2.0716
Rb2SnO3,2.0716
Rb3BiSe3,2.0716
TcXeO4F5,2.0717
BaCaNdBiO6,2.0717
Gd6MgWO12,2.0717000000000003
TeHO3,2.0717000000000003
Co(IO3)2,2.0717000000000003
MgCr2O4,2.0718
CsDyCdSe3,2.0718
V3NiH48(SO10)4,2.0718
Na2NbInSi2SO12,2.0718
HgP2Xe5F22,2.0719
ZrTi4(PbO3)5,2.0719000000000003
KSrCeNbO6,2.0721
C7Cl5,2.0722
TiMn2O6,2.0722
K3Nb7O19,2.0722
Li4Nb2Ni3Sn3O16,2.0723
RbSnAsO5,2.0723000000000003
LiIO4,2.0725
Hf2N2O,2.0726
K3AsSe3,2.0726
LiMo2P3O13,2.0726
LuWO4,2.0726000000000004
Li4HN,2.0727
Mg30VNiO32,2.0727
FeP6(WO8)3,2.0728
Na2Ca2Zr2SiS5O24,2.0728
Ce2Nd2O7,2.0728
Ba4Na2CaTi3Si4(SO13)2,2.0728000000000004
Ca3Ge3(WO6)2,2.0729
Nd6Mg(GeS7)2,2.073
Nd2MgS4,2.0730999999999997
K2LuAuCl6,2.0732
MgB12(H3O)12,2.0732
Li3MnFeCo(PO4)3,2.0732000000000004
KBaNbS4,2.0733
Na9Nb4Zn2Si6(PO12)3,2.0733
In2PO5,2.0733999999999995
Li2Fe3SbO8,2.0734
Sr2NiMoO6,2.0734000000000004
K2Ba(NO2)4,2.0734000000000004
BiPbClO2,2.0737
Yb2GeS4,2.0737
Li2NiP2O7,2.0738
LiAuF4,2.0738
K4CaU(Si2O7)2,2.0738000000000003
Cs2Re3Se4I3,2.0739
MgV(SiO3)2,2.074
ScAgO2,2.074
NaMg2Ta2P3(SO8)3,2.0742
Ca2La2MgTi3O12,2.0742000000000003
LiMnF4,2.0742000000000003
VBO4,2.0746
Si2H2O3,2.0746
Na2UO4,2.0747
Li3Nb(NiO2)4,2.0747000000000004
BaPrFeSnO6,2.0748
K2SrTa2O7,2.0748
Dy3NbO7,2.0748
SrCaYBiO6,2.0748999999999995
LiFe(SO4)2,2.0749
Li4Ni3WO8,2.0751
Nb2FeO6,2.0751
Na8Zn2Ga2Si3(SO8)3,2.0752
Li2VBO4,2.0753
As(S8I)3,2.0753
Na6NbAl3Si4(SO12)2,2.075400000000001
AlGaBr4,2.0756
Ba2LiIO6,2.075600000000001
Zn3Fe2(Si2O7)2,2.0757
Sr2Li3NbN4,2.0758
KVF3,2.0758999999999994
K3Ta2Ag3Se8,2.076
Ca2VP3H4O13,2.076
MoF5,2.0761
PPbS3,2.0761
Cs2Pb2O3,2.0761000000000003
CoBiAsO5,2.0761000000000003
CsHgCl3,2.0762
MgCrH3(CO3)2,2.0763
CuH2CBrN2,2.0763
Mg(SbO2)4,2.0763
V2PbO6,2.0763
NaAlSiGe(SO6)2,2.0764
MnBePO5,2.0764000000000005
Sb2Te3MoC4(OF3)4,2.0766
KLiZnO2,2.0766
Na3TiInSi(PO6)2,2.0766
Ba4Ge2Pb(S4Br)2,2.0767
Hf2SN2,2.0768000000000004
NaSrYSeO6,2.0769999999999995
Na3CaTi(PO4)3,2.077
Er2MgSe4,2.077
NbZnP(SO6)2,2.0771
HgNO2,2.0771
Ba4Ti3O10,2.0772
YMg6NiO8,2.0772000000000004
HfTi4(PbO3)5,2.0772999999999997
In3SnI5,2.0773
K2HgO2,2.0773
K2Ca4U(SiO4)4,2.0773
Ca(BeN)2,2.0774000000000004
Hf2N2O,2.0775
KInO2,2.0775
TlMo2P3O13,2.0776000000000003
Li2V3SbO8,2.0776000000000003
HfTi4(PbO3)5,2.077699999999999
LiFe4(PO4)3,2.0777
Mg3Co3(AsO4)4,2.0777
Li4UO5,2.0777
Na4SnS4,2.0780000000000003
PbIF,2.0781
Na8Mg2Ga2Si3(SO8)3,2.0781
Ba7Sr5(MoN4)4,2.0781
Li5Br2N,2.0781
Na4Zn3SnP2(SO6)4,2.0781
NaSrTbSeO6,2.0783000000000005
KNa4FeO4,2.0784
RbRuN2,2.0784
Co2P2O7,2.0784
Na8Zn3Sn(PO4)6,2.0786
Hf2N2O,2.0789
Na6Mg4Nb2P6(SO12)3,2.0789
Os3C12(IO6)2,2.0789
MgV2(CoO4)2,2.079
Na3MnPCO7,2.0790999999999995
SbPS4,2.0791
Ba3Cd(SnS4)2,2.0791000000000004
SrZnO2,2.0793
MgFe3PO7,2.0793
NaVPO4F,2.0793
Nd4(SiS4)3,2.0794
Li3V2(PO4)3,2.0794
Ce2ZrO6,2.0796
Sr2CaV2(Si2O7)2,2.0797
NaSrDySeO6,2.0798
TaOF3,2.0799
LiCr3Ni(SO4)6,2.0799000000000003
Na10Sc4Nb4Si9(SO16)3,2.08
Sr2SnS3F2,2.0801
RbLiMg14O15,2.0801000000000003
Li7PS6,2.0802
Sm2MgPtO6,2.0802
MgZn2Co2(PO5)2,2.0802
K2RuN3Cl3O5,2.0803
NbOF3,2.0803000000000003
Li2FePCO7,2.0804
Sr2LiNb3O10,2.0804
Li2VF6,2.0805
TlPPbS4,2.0805
Hf2N2O,2.0806999999999998
Dy2SeO2,2.0807999999999995
V6O5F19,2.0808
Mn3Fe2(GeO4)3,2.0808
Nd3FeO6,2.0809
La2MgSe4,2.081
Ca(FeO2)2,2.081
Gd2Mn(GeO3)4,2.0811
CaLa2Fe2(TeO6)2,2.0811
CaCr(PO3)4,2.0812
SrLaI5,2.0815
SrSmHfFeO6,2.0815
Na4SrU3O12,2.0816
Ga10Si2O19,2.0817
VOF,2.0817
Ba7Sn3S13,2.0817
La5Sm3Cr8O24,2.0817000000000005
KMo2P3O13,2.0818
Cs2HgF4,2.0818
MgBr2O,2.0818000000000003
Ta2Mn(P2O7)3,2.0819
SrTiFe3(BiO4)3,2.0819
K2H12Ru(SO7)2,2.0821
Na2Sc6Ta2Si3(S3O16)3,2.0821
Mn(IO3)2,2.0822
V4OF11,2.0824
CsSbCl6,2.0825
K3RhF6,2.0825
Cs3PdF5,2.0825
K2TiCl6,2.0826
Na3TiZn(PO4)3,2.0827
PbC12(SF5)2,2.0828
LaTa2NO5,2.0828999999999995
Li3V2(PO4)3,2.0829
Li2Fe2Si4O11,2.0829000000000004
Mg30VCuO32,2.083
K2UH6C4SeO15,2.083
BeAgPO4,2.083
BaWO4,2.083
La4MnS6O,2.083000000000001
ZrTi2(PbO3)3,2.0831
Li2HN,2.0831
Bi28Mo2O47,2.0831000000000004
K2LiIrF6,2.0832
C2F,2.0832
BaNdFeSnO6,2.0832000000000006
RbU2H5C4O15,2.0833000000000004
CaNdHfFeO6,2.0833000000000004
K2O2,2.0834
CrP2Pb5O13,2.0834
Ca(SmS2)2,2.0834
Li5Fe2(BO4)2,2.0834
Li2Bi5B3O13,2.0836
LiVF4,2.0836
Pr3SiSe2N3,2.0836
Cs4UC3O11,2.0837000000000003
LiCoPO4,2.0837000000000003
Sb2Te2O9,2.0837000000000003
Ca2Ti6N2O11,2.0837000000000003
Li3Ni5OF11,2.0838
Na4SnO4,2.0838
NaTi3FeO8,2.0839
SrCaNbCrO6,2.084
Li2MnF6,2.084
Li3V2(PO4)3,2.084
KTbSnWO6,2.084
Li4Ti7O16,2.0841000000000003
Ba8Ce7YHO24,2.0843
Sn(GeO3)2,2.0843
Li3MnFeCo(PO4)3,2.0843000000000003
Pr2SiTeO4,2.0844
Na3GaSe3,2.0844
CdRe2H16C4S4(NO)8,2.0845
Nb4Ag2O11,2.0845
KSbCl6,2.0845
B5H7S,2.0846
LiBeN,2.0847
Na3Mg2Nb4(PO4)9,2.0847
GePb5O7,2.0847
CsMgBiO3,2.0847
Li3IrF6,2.0847
Na2CaZr3Si2(SO6)4,2.0847
LiH12AuC4(SO3)4,2.0848
La3FeO6,2.0848000000000004
Na3MgMo(OF)3,2.0849
SeO3,2.0849
YMgAg(WO4)2,2.0849
Te8MoW3,2.0849
K2Zn(H2N)4,2.0851
Ta3InSi3(SO8)3,2.0852
UCd2O5,2.0853
YCdBiO4,2.0854
CdAs2S18N12(OF2)6,2.0854
CdTe(Pb3O5)2,2.0854
Ca2Ti6N2O11,2.0854000000000004
La3BeGaS7,2.085400000000001
Li2VP2HO8,2.0855
CaNiO2,2.0855
MgV2(GeO3)4,2.0855
CsH5N2,2.0856
KFeH5(SO5)2,2.0856
Tl3Bi3(PS4)4,2.0856000000000003
Mg2FeBO5,2.0857
Na4Cu2S3,2.0857
Cu2As9P3S9I2,2.0858
K4LiIO6,2.0858
VHO3,2.086
Na8Ti3ZnSi4(PO12)2,2.086
SrV4(AgO6)2,2.0861
SrUO4,2.0862
MgNi(GeO3)2,2.0863
Na3ErTi2Nb2O12,2.0863
RbNiW(OF)3,2.0863
CrF6,2.0863000000000005
Li2AlAgF6,2.0864
Na2MnCl4,2.0864
TiNi(PO4)2,2.0867
AsSXe2(OF3)3,2.0867
LiV(Si2O5)3,2.0867
Hf2N2O,2.0867999999999998
Li2VCr(P2O7)2,2.0869
NaSn4P5SO24,2.0869
ZnCrO4,2.087
Cs2ErAuCl6,2.0871
BaCo2(PO4)2,2.0872
LaNb7O19,2.0872
BiBPbS4,2.0872
Th10N9F13,2.0872
GdZr6(PO4)9,2.0873
GdH18(IO3)3,2.0874
La2Ti3(BiO6)2,2.0874000000000006
Li3CoOF3,2.0876
TePb3(ClO2)2,2.0877000000000003
Ba2Ti6N2O11,2.0878
Rb2CeO3,2.0878
FeO,2.0878
Sr2MgZnWO6,2.088
Mg30CoBO32,2.088000000000001
TmMgSb(PbO3)2,2.0880999999999994
LiVP2O7,2.0882
NaSrSmSeO6,2.0883
Na12Mg2Nb4(SiO4)9,2.0883
HgH10C3I3N,2.0883
K2Re3TeC3(SN)3,2.0883000000000003
Cs3DyO3,2.0884
Na2CeO3,2.0887
RbLi7(NiO3)2,2.0888
Ca16Zr9Ta7N7O41,2.0888