formula,band_gap (MP)
Na5Y2Ta2Si3(PO8)3,2.8656
Cs2Mo7O22,2.8656
NaMgTaP2SO12,2.8657
Ho2SeOF2,2.8658
DyGaO3,2.8659
TlBO2,2.8659000000000003
NaTiPO5,2.866
Li12Mn3NiP4(CO7)4,2.8660000000000005
Tm3Sb5O12,2.8661
SrZn2(AsO4)2,2.8662
BN,2.8663
Sr3(BN2)2,2.8663
ReH(CO)4,2.8664
TeH18C9S6N3Cl,2.8664
KSrSmWO6,2.8665000000000003
NaAlSe2,2.8666
Li2Ti3O7,2.8666
Nd2SO2,2.8667
HN,2.8669
Li2Cr(CO3)2,2.8669
Te5(O2F11)2,2.867
BaSrTbNbO6,2.867
Na7Mg3SnP5SO24,2.8673
Ba2VTe4HO13,2.8673999999999995
CaTb2O4,2.8674
LiMn4(PO4)3,2.8675
LiCr(SiO3)2,2.8675
KBiN(ClO)3,2.8675
SbOF,2.8677
KRbAu2,2.8677
Na3TiSi2SnPO12,2.8679
CsZnAgC4(SN)4,2.8679
BaSrPrNbO6,2.8679
NaY3TaP3(SO8)3,2.8681
H24PtC8(NF3)2,2.8681
Li2Cr2(Si2O5)3,2.8684000000000003
GdAl3(PbO4)2,2.8685
BaCaDy2F10,2.8686000000000003
KLaSiS4,2.8686000000000003
Cs2I4O11,2.8686000000000007
MgCoP2O7,2.8687
BaSrSmNbO6,2.8688
Na7Zr2Ti2Si5PO24,2.8689000000000004
MgSeO4,2.869
Na8Ga2Si5Sn2SO24,2.869
CaBi3P3O13,2.869
La3Ga5O12,2.869
HfSO,2.8690999999999995
Sr5Cd5P6(O12F)2,2.8690999999999995
TlNO3,2.8691
P4S3,2.8693
Na3As3(HO5)2,2.8694
Na2CdH4(SeO5)2,2.8694
Ho2SO2,2.8696
Na3CoPCO7,2.8697
BaH2,2.8697
BaMo2C4O17,2.8698
Bi6Cl3O7F,2.869800000000001
BaSrNdNbO6,2.869800000000001
Ca2Al4Si8H14O31,2.8699000000000003
Na2Cd(SiO3)2,2.87
Cd3Se3O10,2.87
Li9Cr3P8O29,2.8701
Na3PH16(SO2)4,2.8701
LiCr(CO3)2,2.8702
TcSbH2(OF5)2,2.8702
NaFe2Mo2H3O10,2.8704
LiFeSiO4,2.8705
Ba2DyNbO6,2.8705
NaTa2Nb2Si3(PO8)3,2.8705
Mg14VCdO16,2.8705000000000007
Dy2SeOF2,2.8706
Na10Mg2Zr6Si7S5O48,2.8706000000000005
K2Mo4O13,2.8708
Li3Fe2OF5,2.8709
Dy2TiO5,2.8711999999999995
Na2Zr(WO4)3,2.8712
BaLi2Ti6O14,2.8713
TaAl3P2(SO6)4,2.8715
Ca4Nb2O9,2.8715999999999995
Al8(Pb3O7)3,2.8716
Li4Fe2Ni3Te(PO4)6,2.8717
Na4TiSi3GeO12,2.8717
KIn(TeO3)2,2.8719
LiMn4(PO4)3,2.8719
Ca3Si4(BiO7)2,2.871900000000001
Bi4O5F2,2.872
SmGaO3,2.872
Gd2W4O15,2.8721
HoGaO3,2.8722
Zr2Bi2O7,2.8722
BeSiN2,2.8722000000000003
K3Nb(SO4)4,2.8724000000000003
K2Zn(GeO3)2,2.8725
CaInBr3,2.8725
BaMg6ZnO8,2.8727
HfSO6,2.8728
BaNaGdWO6,2.8728
Na14Mg4Zn4Si3(S3O16)3,2.8728
LiTl2InCl6,2.8728
MnZn(Si2O5)2,2.8729000000000005
Na2SrV4O12,2.873
K2TeO4,2.8731
Na3ZrNb(SiO4)3,2.8732
Li2Nb4ZnO12,2.8733
Na3Zr2Nb2Si3(PO8)3,2.8734
Li3Ta7O19,2.8734
BaSrYNbO6,2.8734
NaSrSmWO6,2.8736
B5H4,2.8736
Na2TeH6SO10,2.8738
Rb2ScAgBr6,2.8738
H8CBrN5O3,2.8739
Tb2Mg(NiO3)2,2.8739000000000003
LiFeSiO4,2.874
ZnTe6O13,2.8740999999999994
Li3CoPCO7,2.8741000000000003
B5(H2N)2,2.8741000000000003
Na2Hf3MgSi2(SO6)4,2.8742
Cs2CoH12(SO7)2,2.8743
Ge3NO6,2.8743
P2H6C4N2Cl2O,2.8743
LiCrP2O7,2.8744
Ti2ZnSn2O7,2.8744
Pr2Ti3(ClO4)2,2.8744
VF5,2.8744000000000005
BaSm5Al3Si9N20O,2.8745000000000003
Na15Ca4Ta8Si9(PO8)9,2.8745000000000003
LiCrSiO4,2.8746
Rb2AgBr3,2.8746
KVCdO4,2.8749
CsTi3Si2P6O25,2.8749
K2PH4S3O2,2.8749
Na2Ge4O9,2.8749
Na2FeNiF7,2.8749
GdAl3(BO3)4,2.875
Ba2Li3Y3(WO4)8,2.8751000000000007
SrCaYNbO6,2.8753
Na2Mo2O7,2.8754
MnSiO3,2.8755
La3YTi4O14,2.8755999999999995
Sr9La5Br33,2.8755999999999995
LiV(CO3)2,2.8758
VOF3,2.876
Li2Cr3(P2O7)2,2.8762
LiCoPO4,2.8762
NaV3(PbO3)4,2.8762000000000003
BaSrDyNbO6,2.8763
Cs2CdI4,2.8766000000000003
Li2FeSiO4,2.8767
LiCr(PO3)3,2.8768
Cs3GaO3,2.877
Na2Ti12O25,2.8771000000000004
Mn3(PO4)2,2.8772
K3AlH6,2.8773
BiBPbO4,2.8773
CaSi2SnO6,2.8773
GdH7C2SO8,2.8774
GdAl3(BO3)4,2.8774
Na2SiSnGe(PO6)2,2.8774999999999995
K2CrAgF6,2.8775
RbBiF4,2.8776
DySBr,2.8776
K4Cr(NO5)2,2.8776
LiGdO2,2.8778
SnP2Cl8O3,2.8778
Na10Hf4Si9Sn4(SO16)3,2.878
MgAs2(XeF5)4,2.878
H14C5SN3ClO2,2.8781
NiBiAsO5,2.8781000000000003
Mn3(PO4)2,2.8782000000000005
K2LiAlH6,2.8783
SrCaDyNbO6,2.8784
Li2CrPCO7,2.8785
SrTiGeO5,2.8786
KFeAs3H7O13,2.8787
AgH8C3S2NO3,2.8787000000000003
SnH20C6(NCl3)2,2.8789
NaLiO,2.879
Sb2H42C15(BrN)9,2.879
Gd2W4O15,2.8791
SnPH5NO4F,2.8792
PrAlO3,2.8792
GdP2H9O10,2.8792
Na14La3Ta5(SiO4)12,2.8792000000000004
SbH12C6(N3Cl2)3,2.8794
Li2Fe(SiO3)2,2.8795
Li2MnSiO4,2.8799
Ba6Na2Nb2V2O17,2.88
Li6P8W3O29,2.88
NbAlO4,2.8801
GdH(SeO4)2,2.8802
B4H5,2.8803
SCl,2.8804
NaSrYWO6,2.8804
CsNaB10H31N7,2.8805
Li2Ti(BO3)2,2.8806
Ca3Nb4(O6F)2,2.8807
CsPbBr3,2.8808
Na10Ta2In6Si7S5O48,2.8809
LiSn(H2N)3,2.881
BaSbClO2,2.881
BaH2(S2O3)2,2.8811
Na3TiNb(SiO4)3,2.8812
CaV2O6,2.8812
Te2SO7,2.8813000000000004
PmBr3,2.8814
La2Th5O13,2.8814
HS3N,2.8815
Li3Cr2(PO4)3,2.8815
Ba2Si5N8,2.8816
CaVP2O7,2.8816
LiVOF3,2.8818
LiCrP2O7,2.8819
Ag2H4(SO4)3,2.8821
Rb2NaCoF6,2.8821000000000003
Ca3Ti3Si2GeO15,2.8822
KSrYWO6,2.8822
Cs2CdI4,2.8822
Er10W2O21,2.8822
LiFe2OF3,2.8823000000000003
Li2MnSiO4,2.8824
Er6TeO12,2.8824
Na3SiSn2Ge2P5O24,2.8824000000000005
Sr2MnSi2O7,2.8825
Cs3Mo2BrO7,2.8825000000000003
SbOF3,2.8826
LiFe(SiO3)2,2.8826
LuGaO3,2.8828
Zn(HO)2,2.8829
Rb2CrO4,2.883
Mg2Ta2SnO8,2.8831
Na2TaAl3P4(SO12)2,2.8831
Y2TiSnO7,2.8833
Na6Ta4Nb4Si11SO48,2.8833
LiMg30SbO32,2.8833
Re2Sb4O13,2.8834000000000004
Na7NbO6,2.8834000000000004
TaP2NCl12,2.8835
Sr2SmNbO6,2.8836
ErCrGeO5,2.8837
SiS2,2.8837
NaMg6GaO8,2.8837
Li2H6Pt,2.8838
Cs2AgI3,2.8838
Li3NiPCO7,2.8839
KSrDyWO6,2.8841
Sr2TbNbO6,2.8842
P2W2O11,2.8842000000000003
LiMn3P3O11,2.8844
K2CrO4,2.8846
Ba2YFeO5,2.8847000000000005
CoH13C2N4O9,2.8847000000000005
CaMn3Zn(SiO3)5,2.8848
Li2FeSiO4,2.8849
KGd(MoO4)2,2.885
Ba2Cd(BO3)2,2.8851000000000004
CsTbSiS4,2.8852
RbMg14BO15,2.8852
V2Ni2PbO8,2.8852
La2MgS4,2.8852999999999995
TlCO2,2.8853
La3Si6N11,2.885300000000001
Lu6MgWO12,2.8855
Mg2ZnO3,2.8856999999999995
BaNbI5O16,2.8858
LiFeF4,2.8859
Sr2NdNbO6,2.8862000000000005
SrCa2Lu10O18,2.8863000000000003
CoBP(HO3)2,2.8865
GdTa3O9,2.8865
Rb4TiO4,2.8866
LiPWCO7,2.8866
Na3SiSn4P5O24,2.8867
CaAl4(SiO6)2,2.8867
Ti6H2O13,2.8867000000000003
Na2Hf(MoO4)3,2.8868
K2PS3,2.887
CaPbI4,2.8871
LuMoClO4,2.8871
AsCl2F3,2.8871
Li2Co(SiO3)2,2.8871
SrMgSnWO6,2.8871999999999995
Na2Ca2Hf2SiS5O24,2.8873999999999995
KSrTbWO6,2.8873999999999995
CdB2XeF10,2.8874
LiMoH6NO5,2.8875
MoPbO4,2.8876000000000004
LiFeSi3O8,2.8878
BiOF,2.8878000000000004
La3TaP2(SO6)4,2.8879
BaTm2O4,2.8879
C4N3,2.8879
Na2AlInF6,2.888
Sr2PrNbO6,2.888
Sb3WC6O6F17,2.888
Na2Dy2B2TeO10,2.8881
BaLa4Ti4O15,2.888100000000001
Li3BS3,2.8882
Na2Al2Si3(HO3)4,2.8883
Na3CoAsCO7,2.8883
CsVPO5,2.8884
Li3Cr(BO3)2,2.8884
AlBiO3,2.8885000000000005
Sr2YNbO6,2.8887
Mn3Cr2(SiO4)3,2.8887
SbAsAuF9,2.8888
Rb2AlTlBr6,2.8889
BaZnGeO4,2.8891
V4Bi6PbO20,2.8891
CoH9(CN2)3,2.8895
HfTaNO3,2.8895
Be(GaO2)2,2.8899
KCaLaWO6,2.8899000000000004
H3CN5O4,2.89
Cs3Er2I9,2.8905
BaCa2Y6O12,2.8906
Ca2B5ClO10,2.8906
Li6Mn(FeO3)2,2.8907
Ba3Zn3Te(PO7)2,2.8907000000000003
Ti3H2O7,2.8908
NaV2Bi3O10,2.8908000000000005
Ba3(SbO3)2,2.8908000000000005
PbSeO3,2.8909
Na6Zn4In4SiS11O48,2.8910000000000005
LiH2N,2.8911
Li2Fe2(SiO3)3,2.8911
LiFeSi3O8,2.8913
Na4In2Si2SO12,2.8914
LiFePO4,2.8914
LiMnPO4,2.8914
P2W2O11,2.8917
BaMg14NiO16,2.8917
Na2LiAlH6,2.8917
CaCoP2O7,2.8918
Na2TaTiSi2PO12,2.8919
Li3NiPCO7,2.8919000000000006
SrV4(Bi3O10)2,2.8919999999999995
Ba2In2Si3SO10,2.8920000000000003
Cs3Tm2I9,2.8922
Tm2Te5O13,2.8923
SrMg6CoO8,2.8924
Li2Ti4O9,2.8924
VGa(TeO4)2,2.8924
KGeCl3,2.8924000000000003
Na14Si11Sn8SO48,2.8924000000000003
Nd4S4Cl2O,2.8925999999999994
MgTiSiO5,2.8925999999999994
Ba6SrI14,2.8926
BaPbF6,2.8927
Na8La2Zn2Si3(SO8)3,2.8928000000000003
H6N4O9,2.8929
SbTe(N3F2)3,2.893
Cs2I4O11,2.8931
LiNi4(PO4)3,2.8931
Mo4H8N2O13,2.8931
Ti5(PO5)4,2.8933
H(CO)2,2.8934
LiInSiO4,2.8934
P2WO7,2.8934999999999995
Na3Hf2Nb2Si3(PO8)3,2.8936
LiGd6B3O14,2.8936
KXeO3F,2.8936
Ba2CaFe2CuF14,2.8937
Mn6P4H2O17,2.8937000000000004
ScBi3(MoO6)2,2.8937000000000004
Ti3AlF15,2.8938
TiZnO3,2.8939000000000004
Li3SbO3,2.894
Cs2RbAsBr6,2.8942
Rb2FeF4,2.8943000000000003
Li2Sn4P4O15,2.8944
Sr3Ga4O9,2.8947
MnH4NF3,2.8948
Sb8Cl2O11,2.8948
Na42Mg8Ta16Si33(SO48)3,2.7505
LaInO3,2.7507
Sr2BN2Cl,2.7508
C12SeF10,2.7508
Cs2SeCl6,2.7509
La2Ti2O7,2.7511
La4MgGa2(FeO6)2,2.7512
LiV(PO3)3,2.7513
KAs2HO6,2.7514000000000003
Cs4Zr3Mn(PO4)6,2.7516000000000003
Li2Ti6Zn3O16,2.7517
CuH12C3S3BrN6,2.7517
Cs3SbO4,2.7517
LiGe2N3,2.7518
Li4Mn3Ni(PO4)4,2.7518
Tb3SbO7,2.752
Sr2Nb2O7,2.7520999999999995
Na6Ti2O7,2.7522
TlCr(SO4)2,2.7522
SrYSi4N7,2.7523
La6MgWO12,2.752300000000001
GdAsO4,2.7524
Li3V(BO3)2,2.7524
Na6Y3NbSi2(PO6)4,2.7527
LiMg14BO15,2.7528000000000006
ZrTi(PbO3)2,2.753
LaGd(BrO)2,2.7531
K2LaI5,2.7532000000000005
CoH20Se2(NO7)2,2.7534
Li3MnFe2(BO3)3,2.7535
SiPH18C6INCl,2.7535
K2Ti6O13,2.7535
H4PbI3N,2.7535
RbTiPO5,2.7536
RbCdBr3,2.7536
Na42Ca8Ta16Si33(SO48)3,2.7536000000000005
BaAlH5,2.7537
Li2VF4,2.7537000000000003
NaSrLaWO6,2.754
Na4LaInSi2SO12,2.7542000000000004
Na14Ta2In6Si9(SO16)3,2.7543
Th(InBr3)2,2.7543
Na10TaAl7Si6(SO8)6,2.7544
SrH6C6S2N2O7,2.7544
VF5,2.7544000000000004
Mg2Ta2CoO8,2.7545
Rb2Ti(GeO3)3,2.7546
Mg(PO5)2,2.7547
Li3Cr3SiO8,2.7547
BaV2CdO7,2.7548
Sr2LiZrCrO6,2.7548
Na14Mg4Zr4Si7S5O48,2.7550000000000003
LiNiPO4,2.7551
K2CoSiO4,2.7551
MgS8(O5F2)4,2.7552
Cs5Si3AgO9,2.7552000000000003
Li3InBr6,2.7553
NaNb4Bi5O18,2.7554
Mn2SnC9ClO9,2.7555
Li2Sn3(P2O7)2,2.7556
TaH20C6N3Cl4,2.7556000000000003
LiVF4,2.7558
Ca3Ta6(FeO6)4,2.7559
Ga2Sb2H16C4S7N2,2.7559
SrZn(SeO3)2,2.756
V2PH10C2N2O8F,2.7561
ScSb(PbO3)2,2.7561
Li2Cr3(P2O7)2,2.7561000000000004
HfPbO3,2.7562000000000006
Li4Cr3GaO8,2.7562999999999995
K2CuH12(SeO7)2,2.7563
NaYMnWO6,2.7564
KH4PbI3O2,2.7564
Na3NbHO2F7,2.7564
XeF6,2.7565000000000004
Tb3SbO7,2.7565000000000004
Na3ZrTiSi2PO12,2.7566
SbXeF7,2.7566
Li2CoSiO4,2.7567
AlBPbO4,2.7567000000000004
MgPb2WO6,2.7567999999999997
Na6Nb3Al(SiO4)6,2.757000000000001
Nd5Ti4GaO17,2.7574
Na7La2Ta2Si5PO24,2.7574000000000005
NaCo2HSe2O7,2.7574999999999994
ZnP2(WO5)2,2.7575
CsVH12(C2O7)2,2.7577000000000003
Na7Zn3SnP5SO24,2.7578
CsNbS2O9,2.7579
Li2VP2O7,2.7579
Te6Mo(OF5)6,2.7579
LiCo2(PO3)5,2.758
Na2SnO3,2.7580000000000005
Gd(BO2)3,2.7580000000000005
Sc4Ti3O12,2.7582000000000004
SbOF,2.7582000000000004
Ba10MgAs6(ClO12)2,2.7583
KMg30FeO32,2.7585
LaCrTeO6,2.7585
Sb7(O2F3)3,2.7587
Na2SnO3,2.7587999999999995
K2La4O7,2.7588000000000004
S2XeNO4F3,2.7589
Ba3GeO5,2.7592
LiCr(PO3)4,2.7593
K5AlCr4(MoO4)10,2.7593
Na2Zn3S4,2.7593999999999994
Ca2FeWO6,2.7594
MnH7C4N3O7,2.7594000000000003
Ca10Nb5InO24,2.7595000000000005
LiSnPO4,2.7596
Na6Mg2Ta4Si3(PO6)6,2.7596000000000003
AsKrF7,2.7597
CsYMg6O8,2.7597000000000005
TeC12(BrF5)2,2.7599
BaSm5Al3Si9N20O,2.759999999999999
LiV2(PO3)5,2.76
LiCr(MoO4)2,2.76
Li2Mn(SiO3)2,2.76
LiFeF3,2.7603
Na9Ta2Zn4(PO4)9,2.7605000000000004
Ti2P2H4O11,2.7606
FeH6C2(NO2)2,2.7606
Cd2H2SO6,2.7607
AsN(OF3)2,2.7607
KCaNb2O6F,2.7607
RbLaSiS4,2.7607000000000004
LiTi2(PO4)3,2.7608
Ge2P2SO12,2.7608
AlCdCl4,2.761
Rb2MoAs2O9,2.761
Fe2SiO4,2.7611000000000003
Li2Si2Ni3O8,2.7613
ZnSi4As2(H3C)12,2.7613
Dy2TiO5,2.7613000000000003
Mn(NO3)2,2.7614
Ca2Ti2SiGeO10,2.7614
Na3Zn2Sn2P3(SO8)3,2.7616
P4S7,2.7617
Na2Cr2H4O9,2.7618
H22IrC3(N3O4)2,2.7618
DySCl,2.7618000000000005
Li4FeOF5,2.7619
Na3TiSi2GePO12,2.762
Gd2SiO5,2.762
Tm2TiO5,2.7622
RbV(IO4)2,2.7622
Sm3Si6N11,2.7625
Cr3B7ClO13,2.7626000000000004
Sn3H28C9IN,2.7628
Li10Zn(PS4)4,2.7628000000000004
Na9Ca5NbP6(SO12)3,2.7628000000000004
Cd3H2CSeO8,2.763
Al2Si2Pb2O9,2.763100000000001
Gd2TiZnO6,2.7632000000000003
Na4Mg(SiSe3)2,2.7632000000000003
TlIO3,2.7633
SnSe2(Cl4O)2,2.7633
KCr(SO4)2,2.7634
Na10Zr4Si9Ge4(SO16)3,2.7635
Li2MnFe(BO3)2,2.7636
CuH12C3S3N6Cl,2.7636000000000003
MgZrSi2O7,2.763699999999999
Li2VF4,2.7638
Sm3NbO7,2.7641
Ni3AgP3(HO6)2,2.7641
RbLiCrO4,2.7642
LiV(OF)2,2.7642
NbAlO4,2.7643
K2Cr2O7,2.7644
Tb2Ti2O7,2.7644
Cs2AgBiF6,2.7645
ZnAs2WO7,2.7645
Be2SiO4,2.7645
Yb(GaS2)2,2.7646
Na14Hf2Zn6Si5S7O48,2.7647
RbTlF4,2.7647
LiNbSn3(PO4)6,2.7647
LiNiBO3,2.7649
Na2Ti12O25,2.7649
Li3CrPCO7,2.7651
Na8Y2Mg2Si3(SO8)3,2.7652
Li4Cr3GaO8,2.7652
SrSc2O4,2.7653
MgV2O6,2.7654
TbNbO4,2.7655000000000003
Na3Ta2Zn2P5SO24,2.7657
La2Ti3O9,2.7657000000000003
RbNb(PO4)2,2.7657000000000003
KSi2BP(H3C)9,2.7658
Sr2ScGaO5,2.7659
NaCaIn(SO4)3,2.7659
YAlN2,2.766
Sr(AlSe2)2,2.766
Zn3Si14H90(C15O2)2,2.7662
Li2VSi3O8,2.766300000000001
Sr(GaO2)2,2.7664
Na5Si3Sn2Ge2(PO8)3,2.7665
HS2IO8,2.7665
Ta2Zn2CoO8,2.7667
Os3C8(SO4)2,2.7668
B13H19,2.7669
Li2Zn2W2O9,2.7669
Mg2SeS,2.767
C4SeBr4,2.7672
Na3LiFe4(SiO3)8,2.7673999999999994
Pr5Ti4GaO17,2.7675
SnH16C4(NCl3)2,2.7676
Na3MgTaSi(PO6)2,2.7676
Na15Mg7Ta5(PO4)18,2.7676000000000003
BC12ClF10,2.7677
Al2(ZnS2)3,2.7677000000000005
Na2Sn(CO2)4,2.7678
NaNiPO4,2.7679
Li10Zn3(GeO4)4,2.7679
TiAs2H4O9,2.7679
P2WO7,2.7679
LiNiBO3,2.768
Re2H6PbC(NO5)2,2.768
Gd3Se4O12F,2.768
MnAs2F12,2.7681
Na6Zr8Si7S5O48,2.7681
Na14Zr4Ti4Si11SO48,2.7682
NaNdTiNbO6F,2.7682999999999995
Na2InPCO7,2.7683
TaCl5,2.7685
CoSO4,2.7686
Na14Hf4Ti4Si11SO48,2.7686
Li4ScFe3(SiO3)8,2.7686
Na10ScNb7(SiO4)12,2.7687
B3Pb6O10F,2.7688
Li3MnFe2(BO3)3,2.7688
Na10Y4Ga4Si5S7O48,2.7688
NaCa9Co(PO4)7,2.7688999999999995
CsAlVP2(HO5)2,2.769
Li5Fe7O3F13,2.769
YSb(PbO3)2,2.7691
NaSbO2,2.7691
BaH3C3O7,2.7691
TaP2S2Cl5,2.7692
RbAs4(HO4)3,2.7692
Li2CoSiO4,2.7693000000000003
TlSbWO6,2.7695
VF4,2.7695
Na3ZrTiSi2PO12,2.7696
RbLiCrO4,2.7696
CoB10(H13O4)2,2.7696
Rb6In2Co2Si9O26,2.7696000000000005
Li2Co(CO3)2,2.7698
Na6Ca2Ta4Si3(PO6)6,2.7699
Na3GaS3,2.7699000000000003
MgFe2O3,2.77
Li3Sb(PO4)2,2.7700000000000005
Bi4B2O9,2.7700000000000005
FeSO3,2.7701
NaSiSbCO7,2.7702
Ti(PO3)4,2.7703
Na2HfNbSi2PO12,2.7703
Li3MnFe2(BO3)3,2.7703
MgTi2(PO5)2,2.7703999999999995
Li4Bi2O5,2.7704
KGdH2S2O9,2.7706
Li2Co(PO3)4,2.7707
TiPHO5,2.7707
MnSnH16C6S3O11,2.7708000000000004
CaC2,2.7709
Nb3Al(PO4)6,2.7709
Li3Sb(PO4)2,2.7710000000000004
CdH6C2I2(NO)2,2.7712
Sn(PO3)4,2.7712000000000003
AsH4NF6,2.7713
BaMg30CdO32,2.7714
Cr3B7ClO13,2.7718
Zn3(BO3)2,2.7718000000000003
Ta7BiO19,2.7719
In(HO)3,2.7719000000000005
Ni(IO3)2,2.772
Na2Ta5Ga3(PO4)12,2.7723
Cs2CaAl4(SiO4)4,2.7723
Na10Nb7In(SiO4)12,2.7723
Ni(AsO2)2,2.7724
Na6Zr2Si5Ge2SO24,2.7725
CaCoP2O7,2.7726
NaPrTiNbO6F,2.7726000000000006
LaCl3O7,2.7726000000000006
LiFeF4,2.7728
Ca2W3O8,2.7728999999999995
Ca3(PO4)2,2.773
CsMoN3O11,2.7732
K4GeO4,2.7733
V2Pb4O9,2.7733000000000003
Na10Ta4In4Si9(SO16)3,2.7733000000000003
LiFeP2(HO3)2,2.7734
ZrGeP2SO12,2.7735
NaTiPO5,2.7735000000000003
BaGe2O5,2.7735000000000003
Li3MnFe2(BO3)3,2.7735000000000003
NaYTiNbO6F,2.7736
RbSbWO6,2.7737
Na2Zr4Al4Si3(S3O16)3,2.7738
Ba2V4Cd3O15,2.7739
Te2MoWSe2,2.7739000000000003
K3PS4,2.7739000000000003
KLaZnWO6,2.774
MgCr2Sb2(PO4)4,2.7741
Li4FeOF5,2.7741
NaNO3,2.7742
KNaGdNbO5,2.7742
Ca2Ti3O8,2.7744
Li2Co2(SO4)3,2.7744
Dy2Ti2O7,2.7747
NaGa4PS5O24,2.7747
AgB5H6N2Cl5,2.7748
MgAs2WO7,2.7749
TaTlCl6,2.7749
LuTl(WO4)2,2.775
NaTiNbSi2SO12,2.7750000000000004
ZrPbO3,2.7752
Cs2MnH12(SeO7)2,2.7753
KBS2,2.7753
KLiS,2.7753
Yb19(Mg4H27)2,2.7756000000000003
Li3VO3F2,2.7757
FeSiO3,2.7758
LiNiBO3,2.7758
KBaGdWO6,2.7759000000000005
SrCaI4,2.776
CsTmO2,2.776
Na2Y4Hf4Si3(S3O16)3,2.776
Na4TaIn3Si3(SO8)3,2.7762
Li4Mn(OF)2,2.7762
Na2ZrSi2SnSO12,2.7762999999999995
VH10SeNO9,2.7763
Ba(AsO3)2,2.7763
P6(Pb2O5)5,2.7764
TiCdO3,2.7764
Li2VF4,2.7764999999999995
Cs2LiInCl6,2.7765
Ge3Pb3O10,2.7765
Ba3TiMoO8,2.7765000000000004
O2,2.7767
Ag2H12C3S3(BrN3)2,2.7767
Na3CaInP2SO12,2.7767
CdRe2H8C2S2(NO2)4,2.7768
Y4CdMo3O16,2.7768999999999995
KZrSnSbO6,2.7769000000000004
K3WS3ClO,2.777
Na4MoS3O14,2.7772
In(HO)3,2.7772
Na5Cr3F14,2.7773
CaTi2(HO3)2,2.7773
Li4Ni7(OF7)2,2.7776
Li2Ti(IO3)6,2.7776000000000005
Li2P2WO8,2.7776000000000005
Mg14ZnCoO16,2.7776000000000005
Li2FeBO4,2.778
LiCoPO4,2.778
Cu3As4H18C8I3(NO2)2,2.778
Al2Te4O11,2.7781
LiCoPO4,2.7781
Sm2MgMo2(I4O15)2,2.7782
Na2TiNbSi2PO12,2.7782
LiMnPO4,2.7783
Li5Cr3NiO8,2.7783
Ca10TaTi8Al(SiO5)10,2.7784
KH8W(NF3)2,2.7786
DyVO4,2.7788000000000004
Li2FeSi3O8,2.7788000000000004
Mg30MnZnO32,2.7789
Li6Sn3P8O29,2.779
Tm6MgWO12,2.7790000000000004
Gd2Zr2O7,2.7790000000000004
MnBiPO5,2.7790000000000004
KBa2IO6,2.7790000000000004
NaMnH6C3S3(NO)3,2.7791
Na3HfTiSi2PO12,2.779100000000001
Li2ZrTeO6,2.7792
TlVO3,2.7792000000000003
Li5P(S2Cl)2,2.7793
Ba2La2Zn(WO6)2,2.7794
LiMnNbO4,2.7794000000000003
ScV(SeO4)2,2.7794000000000003
YMg6MnO8,2.7796000000000003
Na3CoC2ClO6,2.7796000000000003
Li2FeSiO4,2.7797
LiCaAlN2,2.7797
ZnTe(H2N)4,2.7798
KHCN4O5,2.7798
Bi6O5F8,2.7798000000000003
SrH6(CO3)2,2.78
TlCr(MoO4)2,2.7802
KMnF3,2.7802
AlZnGaS4,2.7802
MoH6NO3F2,2.7803
Ba(H2O3)2,2.7803
Li4Fe2Si4O13,2.7804000000000006
Fe4OF6,2.7805
C4SBr4,2.7805
BaYI5,2.7805
Si7PbN10,2.780500000000001
PmPaO4,2.7806999999999995
Na6Hf2Si5Sn2SO24,2.7807000000000004
KAs4(HO4)3,2.7809
NO2,2.781
Sr2V3BiO11,2.781
Sm2SeOF2,2.7810000000000006
Na3Mg2Ta4(PO4)9,2.7811
DySI,2.7811
RbZn4(BO3)3,2.7812
MgAl6O10,2.7812
LiTiNF6,2.7812
Cs2BeO2,2.7813000000000003
Hg3Bi2(SCl4)2,2.7814
KLaMgWO6,2.7814999999999994
Na21Mg10Ta2P15(SO24)3,2.7815
Cs2TeCl6,2.7815000000000003
H14C2N8O5,2.7816
SiO2,2.7816
NiH8(NO5)2,2.7816
KNdHf2O6,2.7817
NaInSnWO6,2.7817000000000003
Tl2S2O3,2.7817000000000003
LiFe2OF3,2.7818
Na2NbSi2SnPO12,2.7818000000000005
SrTi4(PO4)6,2.7819
Cs2LiGdCl6,2.782
Rb3SbO3,2.7821
ZnMoF5,2.7821
FePO4,2.7823
BaSrGdNbO6,2.7823
Mn3Zn9(PO4)8,2.7824
SrO2,2.7825
Cd2H18C8O17,2.7825
TiBr4,2.7825
SrCoP2O7,2.7826
BaCaI4,2.7827
Fe4OF6,2.7828
KMnF3,2.7828
VF5,2.7828
Li2SiH18(C3N2)2,2.7831
Na8Sc2Ti2Si5SO24,2.7832000000000003
P,2.7833
NaCaNb2O6F,2.7833
KMoIO6,2.7834
CaInI3,2.7835
K4GeO4,2.7837
Na3Nb2Si3Ge2(PO8)3,2.7839
VOF3,2.7839
Na3ScSiSn(PO6)2,2.7839
K2Ti(GeO3)3,2.7839
ZrBrN,2.784
HCl,2.7840000000000003
LiNiBO3,2.7845
Li2O,2.7845
Na3B5Se9,2.7845000000000004
Sr2LaI7,2.7846
VBiO4,2.7846
LaCO,2.7848
LiH2N,2.7848
CuH14C3S3N6ClO,2.7848
Li2MnSiO4,2.7851000000000004
NaTaIn3P3(SO8)3,2.7852
Li4FeO3F,2.7852
GdAsO4,2.7853000000000003
RbInAs2O7,2.7853000000000003
Mn7P6(HO6)4,2.7854
In2(CN2)3,2.7856
Rb2TeMo2(PO7)2,2.7858
La4Ga3FeO12,2.785800000000001
LiSbO3,2.7859
Na14Y4In4Si7S5O48,2.786
Bi2H18C3(IN)9,2.786
TbPaO4,2.7860000000000005
Sn2P2O7,2.7861
LiSnPCO7,2.7861
MgTi(BiO3)2,2.7861
Li4Zn(PS4)2,2.7862
NaNbSiGe(PO6)2,2.7862
SmPaO4,2.7863
Na5Nb3Si6GeO24,2.7863
NaNdTiNbO6F,2.7863
HgNO3,2.7863
YPaO4,2.7864000000000004
Na4Ga2S5,2.7865999999999995
CsH6Rh(N3O4)2,2.7866
BaSn(GeO3)3,2.7866000000000004
TlNO3,2.7867
TaTlV2O8,2.7868
Pb(CO2)2,2.7868000000000004
H6C8I3NO5,2.7869
Na2Zr(MoO4)3,2.7872
H6N4O9,2.7873
V2P2O7,2.7873
CsH6Rh(N3O4)2,2.7874
YMoClO4,2.7874
Al3Tl4Fe(As2O7)4,2.7875
LiNi4(PO4)3,2.7876
Li4Zn(PS4)2,2.7876000000000003
CaCo(SiO3)2,2.7877
Na4TiSi3SnO12,2.7877
LiMn2F5,2.7878
Na3MgGaSi(SO6)2,2.7880000000000003
K2FeH2OF5,2.7881
NdPaO4,2.7881
Sr(SbO3)2,2.7881
Na3BiO3,2.7882
Na3TiSi2SnPO12,2.7882
NaHO,2.7884
TiZnAs2O7,2.7884
LiCo(PO3)3,2.7884
VOF,2.7884
CoH18C4N7O8,2.7884
H13C4S2NO6,2.7885
LiMn2F5,2.7887000000000004
CuC3(OF)3,2.789
TlBi(WO4)2,2.7892
CaMn(Si2O5)2,2.7892
Na3Mg2Sn2P3(SO8)3,2.7892
Na6Zr4Sc4Si5S7O48,2.7892
KBaNdWO6,2.7892
TlVH6SO9,2.7893
Li2Mn3F8,2.7893
Ti4P6PbO24,2.7893
K6Al32O51,2.789300000000001
P4WO12,2.7894999999999994
Na6Y2Ta6Si9(SO16)3,2.7895
VOF3,2.7895
VF4,2.7897
TiH3CO5,2.7897
BaWO4,2.7897
AlTlSiO4,2.7897
Li2FeP3O10,2.7898
K2VOF4,2.7902
Na14Zn8Si3(S3O16)3,2.7902000000000005
TaOF3,2.7903
SrLa2O4,2.7904
KVOF3,2.7904
CaPbI4,2.7905
Cs2RbBiI6,2.7905
LiVTeO5,2.7905000000000006
Th(MoO4)2,2.7906
Be3ZnS4,2.7906
K3ReMoO8,2.7906
CsTi3P5O19,2.7906
RbYMg30O32,2.7907
LaSBr,2.7907999999999995
Li4Zn(PS4)2,2.7908
V2Pb3O8,2.7908000000000004
TlCrP2O7,2.791
H12C4S3(N3Cl2)2,2.791
Hg2SN2Cl4O3,2.7911
Na6Mg7Sn(SO4)12,2.7913
LiMnPO4,2.7917
V3Pb5O12F,2.7918
Cd4MoW3O16,2.7918000000000003
Hf(SeCl6)2,2.7918000000000003
AsH3C(SF2)3,2.7919
Nd4Ga2S5O4,2.7919
BaZnAs2O7,2.7921
CsTlF4,2.7921
NaCa2V3Zn2O12,2.7921000000000005
H11C10NO8,2.7922
Na10Zr5Zn3Si6(SO8)6,2.7922
Ca2TaCrO6,2.7922
Ni2C5(Cl2O)2,2.7923
Na2TaIn3P4(SO12)2,2.7924
La2MoO6,2.7924
Na7Zr3Nb(SiO4)6,2.7924999999999995
K10Hf3Mo12PbO48,2.7925
Ho11Te16ClO48,2.7926
ZnCoPHO5,2.7927
LiVF4,2.7927
Li2Ti(BO3)2,2.7928
VOF3,2.7929
Zr2Bi2O7,2.7929
KGdH2C2SO9,2.793
AsS2XeN2F13,2.793
P4WO12,2.793
GdGaGe2O7,2.7932999999999995
Fe(PO3)3,2.7934
Ca5Si2HO9F,2.7934
Rb2SrV4O12,2.7936
Na2Hf4Zr4Si5S7O48,2.7936
La16Mg2Ga14O47,2.7936999999999994
NiPb2WO6,2.7937000000000003
MnH(CO)4,2.794
Li4Ge5O12,2.7941000000000003
Y2Si3N4O3,2.7943
UF6,2.7943
Cs2AgMoF6,2.7943
BaVOF4,2.7946
Ba2BN2Cl,2.7947
Ca5Al2(SiN4)2,2.7947999999999995
Cr2NiO4,2.7948
RbAl3Cd(SiO4)3,2.795
Na2Zn3(SiO4)2,2.7951
KRb2Mo(OF)3,2.7955
Na2ScSn(PO4)3,2.7955
Hg2H8C2NCl5,2.7957
NaAlSiO4,2.7958000000000003
Sc4Ti3O12,2.7959
Ba2CaI6,2.7959
Mn4Si4SnB2(HO9)2,2.7959000000000005
KLi2(HO)3,2.796
H24RuC7S3NCl3O4,2.7961