formula,band_gap (MP)
Li3V2FeO6,0.8235000000000001
Ti3V5O16,0.8235999999999999
Li3Mn2O5,0.8235999999999999
Li5SbS4,0.8237000000000001
MoW3(SeS)4,0.8237000000000001
Li7Mn4CoO12,0.8239000000000001
TeO3,0.8240000000000003
Mg(WO2)4,0.8240000000000003
NaCaSb,0.8240999999999996
Li7Mn4CoO12,0.8241
Sr2AlGaW2O7,0.8241999999999994
Li7Mn5O12,0.8241999999999998
C2SeNClO2,0.8241999999999998
TbCuSe2,0.8242000000000003
LiV2(SiO4)2,0.8243
LiCoP2O7,0.8244
K6WN4,0.8245
Ti8Fe35O64,0.8245999999999998
RbTe,0.8245999999999998
Li4V3P8O29,0.8246
K4CdP2,0.8246
CaMn2O4,0.8246000000000002
La4(CoO3)3,0.8247999999999998
Fe6H12Pb(SO7)4,0.8248
MgMn3CoO8,0.8248000000000002
Bi4I3Br,0.8248000000000002
Na2CaSiSn(SO6)2,0.8249
MnFeCo(PO4)3,0.825
VFeP2(HO5)2,0.8250000000000001
V4CoH4C4(NO5)2,0.8250000000000002
GdCrO3,0.8250000000000002
TeAsRu,0.8250000000000002
Zn2SnO4,0.8250999999999995
AlAgO2,0.8251999999999997
MgFe8(OF)8,0.8252000000000002
K8Zr3Si12SnO40,0.8252000000000002
Li7Mn4CoO12,0.8252000000000002
Nd2Ti2S2O5,0.8252999999999999
K4MgZn4H16(Br3O2)4,0.8253999999999999
Re(AgCl3)2,0.8254
LiFe2F6,0.8256999999999999
V3Ni(PO4)4,0.8257000000000003
MgCdS2,0.8257000000000003
Ca4Sn5S14,0.8258000000000001
MgFe4(OF)4,0.8260000000000001
Li4Fe5Sb3O16,0.8260999999999998
CoPO4,0.8261
KGdZrTiO6,0.8262999999999998
Li4MnCo2O7,0.8262999999999998
KGdTe2,0.8263000000000003
Rb2V(OF2)2,0.8264
Ba3(SiAs2)2,0.8265000000000002
Li2FeCoO4,0.8265999999999996
Bi2SO2,0.8266
BaSrEuWO6,0.8266999999999998
Sr2AlGaCo2O7,0.8266999999999998
Li3MnAlO4,0.8266999999999998
CaMgVO5,0.8268000000000001
Na3Mn2P2(CO7)2,0.8269
LiGe3SbTe5,0.8269000000000002
Er(CuTe)3,0.827
Li5Mn3O8,0.827
KCaBi,0.8270000000000002
Y(PO3)3,0.8271
Na3Mg(NiO2)5,0.8271000000000002
K2ZrSi3O10,0.8271999999999999
Rb2AgBiI6,0.8272999999999999
MgMn2Te2(MoO6)2,0.8273999999999999
CdRe2C6(N6O7)2,0.8274000000000001
Li4Fe3SbO8,0.8274999999999997
RbGdS2O9,0.8274999999999999
Mo3W(Se3S)2,0.8275000000000001
Mo3W(Se3S)2,0.8276000000000001
MoPN(Cl3O)2,0.8276999999999999
Na5Y2(SiO4)6,0.8277000000000001
AgH3CN3O4,0.8278
Ba3RuF6,0.8278000000000001
LiCuF4,0.8278999999999999
Tl4S3,0.8279000000000001
Li9Mn2Co5O16,0.8279999999999998
MgMn5O8,0.8280000000000003
Li2CeP2,0.8280999999999996
Na5Mn3F14,0.8281
Ca4Mg4P4O17F3,0.8282
Na6Mg(CoO3)2,0.8282
MgTl2Pb16(Br9O4)2,0.8283
LiMnVP2(HO5)2,0.8283
Li47(CoO4)8,0.8284
Cs2KGaI6,0.8284000000000001
BN,0.8285
Sr(ZnP)2,0.8285999999999998
MnFe3(PO4)4,0.8286
Na4La2Zr2Si3(SO8)3,0.8287
NaMnP2O7,0.8287
K2In2Sb3,0.8287999999999998
Na4Cu6O5,0.8289999999999997
Li5Mn3O8,0.8290000000000002
Zn(InTe2)2,0.8291
BaCaCuF7,0.8291000000000001
CuH11C5NO6,0.8291999999999999
K6Co2O5,0.8292999999999999
K2CuBiI6,0.8293000000000001
MgTa4(CuO6)2,0.8293999999999997
LiMn2O2F3,0.8294999999999999
Pd(SN)4,0.8294999999999999
RbSb2Au3S5,0.8294999999999999
K5Ag2(AsSe3)3,0.8295
Mg14MnBO16,0.8295000000000003
Mg2SbWO6,0.8296999999999999
Cu8SiS6,0.8296999999999999
V(CO3)2,0.8297
La2BiO5,0.8297999999999996
ThMo2O9,0.8298
Fe4O3F5,0.8299999999999998
RbNaB4H4O13,0.8300000000000001
Ti7(Fe3O8)3,0.8300000000000001
Li7Mn11O24,0.8300000000000001
CeSe2,0.8300000000000001
Li4Cr3CoO8,0.8301000000000003
Na2MgSiGe(SO6)2,0.8302
BaFeOF5,0.8303
Li3Al2CoO6,0.8303000000000003
Li3Mn2SnO6,0.8304
Na2V2O5,0.8304999999999998
Ba6Mg(P2O7)3,0.8304999999999998
Ca2S2O9,0.8304999999999999
K3PSe16,0.8305000000000002
Ag3P11,0.8305999999999996
MgMn2(P2O7)2,0.8306
Li4MnCo2NiO8,0.8306999999999998
Li9Mn2Co5O16,0.8306999999999998
Li4VFe(WO6)2,0.8306999999999998
Cs4Os2Cl10O,0.8307
K2SnTe3,0.8307000000000002
Li2Ni2BiO6,0.8308999999999997
LiV4O8,0.831
Na6Mn7Fe6(PO4)12,0.8310999999999997
MgV8(OF)8,0.8310999999999997
Hg(NCl)2,0.8311000000000001
Bi2Te7Cl8,0.8311000000000002
Cr4OF11,0.8311999999999999
La2ZrSe5,0.8311999999999999
Mn3O4,0.8311999999999999
Li4V3P8O29,0.8312999999999999
Li9Mn2Co5O16,0.8313000000000001
Hg3H4(IO6)2,0.8314999999999999
Pt(SN)4,0.8315999999999999
BiN3O14,0.8315999999999999
MoO2,0.8315999999999999
Li6V5SbO12,0.8316999999999997
Li4V3P8O29,0.8317000000000001
Mn2Bi3O7,0.8317000000000005
K3GaI6,0.8318000000000001
CsSiI3,0.8319999999999999
CoTe(PbO3)2,0.8319999999999999
TiVO4,0.8320000000000003
Li3V(FeO3)2,0.8320999999999996
Li3Cr4FeO8,0.8321000000000005
Li5Mn3O8,0.8321999999999998
BiI,0.8321999999999998
LiV(PO3)5,0.8321999999999999
Li4FeS3,0.8322
S,0.8323
Ti9Fe11O30,0.8324000000000003
Ca4PbN4,0.8324000000000003
Li32Ti5Cr11O48,0.8324000000000003
Cs2Te3As,0.8325
Li2VFeO4,0.8325000000000005
RbCu2I3,0.8325000000000005
Mg2Nb10Si9(SO8)9,0.8326
Ba2ScUO6,0.8326000000000002
MgCrO2,0.8329
Li7Mn2(CoO4)3,0.8329
Li3V2P4(HO8)2,0.833
Na2TiZn3(SO4)6,0.8330000000000001
BiN,0.8331
LaMgCrCoO6,0.8331
Ca3(InN2)2,0.8331999999999997
Li7V16(PO4)24,0.8331999999999999
Li2TiCr3O8,0.8332999999999997
K2TlInI6,0.8332999999999999
Rb12Mg(ClO)4,0.8332999999999999
Li3V2P4(HO8)2,0.8334000000000001
MoO2,0.8334999999999999
Na4PuH7O9,0.8335
Te4MoW3Se4,0.8335000000000004
La7Sm(FeO3)8,0.8335999999999997
SrSnS3,0.8335999999999997
Li3Fe4(BO3)4,0.8335999999999997
Li9Mn2Co5O16,0.8338000000000001
Tm(CuTe)3,0.8338000000000001
Mg30SnCO32,0.8338999999999999
NaHfCuWO6,0.8338999999999999
Yb2MgCu(GeO3)4,0.8339999999999999
Ba2SbI,0.8340000000000001
Li5CrS4,0.8340000000000001
MgCoPb2WO6,0.8342
HfMg30BO31,0.8342999999999998
CsNd2CuSe4,0.8344
Na2CoAsCO7,0.8344999999999999
Nb8Cu2O21,0.8345000000000002
Sb3Au2Xe2F19,0.8347
Na4Al3Si3NO13,0.8347000000000002
H3I3N2,0.8348999999999998
CaSn2S5,0.8349999999999995
WN2,0.8351
LiCo(PO3)4,0.8352999999999999
BaScCuS3,0.8353000000000002
Li7Mn4CoO12,0.8353999999999999
Cs3Bi11Se18,0.8355000000000001
P(WO4)2,0.8355999999999999
FeHO2,0.8356999999999999
SrCaTiMnO5,0.8357999999999999
Te2MoWSeS,0.8359000000000001
K2LiS2(O2F)2,0.8359000000000001
MgBi4(WO6)2,0.8359000000000005
Ni(SO6)2,0.8359999999999999
CeSe2,0.8360000000000003
Li9Mn2Co5O16,0.8360999999999996
CaSn2S5,0.8361000000000001
LiFe2(BO3)2,0.8361000000000001
HgI3NO,0.8361000000000001
MgV5(MoO5)5,0.8361999999999998
Li7Mn2(CoO4)3,0.8361999999999998
AgAs3H2O9,0.8362
NaNbN2,0.8362000000000003
Mg2Cr3O8,0.8362000000000003
RbSnN,0.8362999999999996
Li3Fe8(BO3)8,0.8362999999999998
Ba2LuUO6,0.8363999999999994
Li7Mn2(CoO4)3,0.8363999999999998
CaAg2Pb,0.8364000000000003
Li3Fe3TeO8,0.8364000000000003
MgAs4(PO4)4,0.8364000000000003
Nd4AlSi5(NO)7,0.8365
NaMgNiIO6,0.8365000000000005
Sr(BrO3)2,0.8365999999999998
Na6Ga5Si7H15O32,0.8365999999999998
Fe4OF7,0.8366
C3N4,0.8366
Cd(RhO2)2,0.8366999999999996
Li3Fe8(BO3)8,0.8367
MgTi(GaO2)4,0.8367000000000004
SbO2,0.8367000000000004
LiMn2(BO3)2,0.8368
KPdN,0.8369
Zn2GaCuTe4,0.8369
Ba2SrB18,0.8369000000000004
Li4Cr2(PO4)3,0.8370000000000002
Ba2MgMo4(Se2O11)2,0.8372000000000002
Fe2CoO4,0.8372999999999999
FeHO2,0.8373999999999999
Ba(MgSb)2,0.8374000000000001
Al5C3N,0.8374000000000006
RbLiMg6O7,0.8374999999999995
Zn3(Se2O7)2,0.8375
Ca11InSb9,0.8375000000000004
Li7Mn4CoO12,0.8375999999999997
Li32Mn3Cr13O48,0.8376999999999999
Mn7FeCl3O10,0.8377999999999999
K5(AsPb)3,0.8377999999999999
LiV(PO4)2,0.8379000000000001
MgFe6(OF)6,0.8379000000000003
SrCeN2,0.8381999999999996
Na2B4O17,0.8383
Li7Fe8(BO3)8,0.8384
Ca11Cr7O28,0.8384999999999998
CoO2,0.8384999999999999
CoH4C4(NO3)2,0.8386
Tl2Sn2S3,0.8386000000000005
BCl,0.8387
La2CrO6,0.8387000000000002
Na2CoPCO7,0.8388000000000001
Na6Mg(BiO4)2,0.8388999999999998
LiCuS,0.8389000000000006
MgFe4(CoO4)2,0.8389999999999995
V3P6WO24,0.8389999999999999
Nb4Te17I4,0.839
KSmS2O9,0.8392999999999999
Ca3(Si3O11)2,0.8393
Li4V3Cr3(TeO8)2,0.8393999999999995
Na5HfAs3,0.8393999999999999
Sc2GePd,0.8393999999999999
LiVFeO4,0.8393999999999999
Rb2Cd2(SO4)3,0.8395
KZnP,0.8395999999999999
Li5V3P8O29,0.8396
KDyS2O9,0.8396999999999999
Mn5CrO12,0.8396999999999999
NaMnPCO7,0.8397
AgHg3As2Cl3,0.8397
Te2Mo3W(Se2S)2,0.8397999999999999
CsTa6PbCl18,0.8398999999999999
PrMnGeO5,0.8399000000000001
NaBi2AuO5,0.8399000000000001
Cd3AsI3,0.8399000000000001
LiFeSiO4,0.8399999999999994
Li2V3CoO8,0.8399999999999999
K4Mn3F12,0.84
MgMnCoO4,0.8400000000000003
SnPbS2,0.8400999999999996
LiV2(CO3)4,0.8400999999999998
Mo6H2N2Cl14O,0.8402999999999999
K2In2As3,0.8403
K4Li3Nb18P12(WO42)2,0.8404
MgV4O7F5,0.8405
Li5Mn2V5O12,0.8405000000000005
AgAuCl4,0.8406
Na5LiN2,0.8406000000000002
Li2Mn3O6,0.8406000000000002
Gd2Mn3Sb3O14,0.8407
Li7Mn5O12,0.8407
MnZnGeO4,0.8407999999999998
Li7Mn2(CoO4)3,0.8408000000000002
Li2NbFe3O8,0.8408999999999998
Na4PtO4,0.8409
Rb2AlAuCl6,0.8409
NiP2N2(O6F)2,0.841
Rb2Pd,0.841
BaMgBi2O5,0.8410000000000002
LiV6O11F,0.8410000000000002
Tl2O,0.8411999999999997
YMg30CuO32,0.8411999999999997
Nb2Zn2CrO8,0.8411999999999997
MgAu4Se4(ClO3)4,0.8412000000000001
Hg4GeS6,0.8412999999999999
SrZrInSbO6,0.8413000000000004
Ba8In6O17,0.8413999999999997
MgCoMo2O7,0.8413999999999997
Pr2Ti2S2O5,0.8414999999999995
DyMgCrS4,0.8414999999999999
CuH8S3O10,0.8415
Li2V3CoO8,0.8416000000000001
Li2V2FeO6,0.8416999999999999
Al2VCl8,0.8418000000000001
Li3CuF4,0.8418999999999999
MgMn3SnO8,0.8418999999999999
Na6Ca8Ta4Si3(S5O24)3,0.8419000000000001
Cu2P7,0.8419999999999996
Li6V3P8O29,0.8420000000000001
Li4Mn3CoO8,0.8420000000000001
LiV5O7F,0.8420999999999994
BaCo2(AsO4)2,0.8420999999999998
Li5V3P8O29,0.8421
Ca3Hf3AgF20,0.8421000000000001
MgCu3(GeO3)4,0.8422000000000001
YMg2Cr3S8,0.8423000000000003
Li4TiCo5O12,0.8423000000000003
Li2Re2O11,0.8424
Li4V3P8O29,0.8424
Li4Mn3CoO8,0.8424999999999998
Ba2Zr6BCl17,0.8424999999999998
LiV2(CO3)4,0.8425
LiFe2F7,0.8425
SrNi3(P2O7)2,0.8425999999999996
NbI2O,0.8425999999999996
SnH5CBr3N2,0.8425999999999998
Na6CoO4,0.8425999999999998
Ca(SbO2)2,0.8428000000000004
TeMoWSe2S,0.8428999999999998
NaFe2(MoO4)3,0.8429
K2Sn2Se5,0.8429
NaV4O10,0.8429000000000001
Ba2GdUO6,0.8429000000000002
Na2ZnSiGe(SO6)2,0.8429000000000002
V4Ni2O9,0.8429000000000002
Hg2N2O3,0.8429999999999999
Co3OF5,0.8431
Li3MnSiCO7,0.8431000000000002
CaMn2(P2O7)2,0.8432000000000001
Na9TaZn11(SO4)18,0.8432000000000002
Rb2Sn2Se5,0.8432999999999999
Li3V3P8O29,0.8432999999999999
CsHo3Te5,0.8433999999999999
Mg3(SO5)2,0.8433999999999999
Li7Mn2(CoO4)3,0.8433999999999999
Mg2Cr3GaS8,0.8434000000000004
BaCl2O11,0.8434999999999999
K2LiS2(O2F)2,0.8435
LiFe2Rh3O8,0.8435000000000001
MgV2(SbO4)2,0.8435000000000006
MgBi4O9,0.8436000000000003
NaGa6AgTe10,0.8436999999999997
Ti4Zn3SnO12,0.8437999999999999
MgMn2O4,0.8437999999999999
MgVRhO4,0.8437999999999999
TiV3O8,0.8437999999999999
Cs3Tb7Te12,0.8438000000000003
BaHfS3,0.8438999999999997
CdC2S2(N4Cl)2,0.8439
Cs2CuBiBr6,0.8439000000000001
HgSeO4,0.8439999999999999
EuPS3,0.8440000000000003
Sm3CuSe6,0.8440999999999996
Ba10Nb3Bi7O30,0.8441000000000001
Na2PdO3,0.8441000000000001
Ca3(SiP2)2,0.8441999999999998
K2GeAs2,0.8442000000000001
KCe2FeO6,0.8443
Li7Mn4CoO12,0.8443
Gd3CuSiSe7,0.8443999999999998
In2Ag2GeS6,0.8443999999999998
KCuP2Se5,0.8444000000000003
Gd3Te2NO,0.8444999999999996
Ba2MgFeMoO6,0.8445000000000005
Li9Mn7O16,0.8445999999999998
KCuPSe3,0.8449999999999998
Tl3AsSe4,0.8449999999999998
Li4V3P8O29,0.8451
Li7Mn5O12,0.8451
ZnFeF6,0.8452000000000002
Li9Mn2Co5O16,0.8452000000000002
Cs2InCl5O,0.8455000000000001
Li4Co7(OF7)2,0.8455000000000001
Ge3Os2,0.8456000000000001
TiVO4,0.8456000000000001
Ti7Fe13O30,0.8456999999999999
Ba4Nd8Cu3PtO20,0.8457000000000003
K2PdSe2,0.8458000000000001
Li2Mn2(PO4)3,0.8459
MgTi2(NiO3)2,0.8459000000000003
Rb2CuBiBr6,0.8460000000000001
Nd(SiP3)2,0.8460999999999999
RbTlO2,0.8461999999999996
Ni(C4N3)2,0.8462000000000001
Ti3Fe9O16,0.8462999999999998
ZnSn2O5,0.8464
MgCo4(NiO4)2,0.8464000000000005
VOF,0.8464999999999998
LiV2P4(HO8)2,0.8465000000000003
Co2(CN2)3,0.8468
Dy4CdSe7,0.8468
Te4Mo2WSe2,0.8468
BaNa2Sr6Al6(OF16)2,0.8469000000000001
K4Mn(AsS4)2,0.8470000000000002
Cs2P3,0.8470999999999997
LiCrPO5,0.8471
KCrPCO7,0.8471
Li4Mn3O7,0.8471000000000002
LiBC,0.8471000000000002
Na3AlAs2,0.8472
HfMgN2,0.8472
K2Ag2SnSe4,0.8472000000000002
LiCu2BP2(HO5)2,0.8472999999999997
Ba2PAu,0.8474999999999999
MgV2(MoO5)2,0.8477000000000001
Ba2Ge(TeSe)2,0.8477000000000001
MnSb3XeF23,0.8478000000000001
MgFe12(OF)12,0.8478000000000003
KRb2GaI6,0.8478999999999999
DySbTe3,0.8479000000000001
LiVFeO4,0.8479000000000001
Li2Fe3TeO8,0.8479000000000001
CaSnS3,0.8479000000000005
ZrCl2,0.8479999999999999
V3OF7,0.848
NaNbZn3(SO4)6,0.8480000000000001
Ca(MoO2)2,0.8480999999999996
LiPr2(BrO2)2,0.8480999999999999
LiTe4H4(O3F4)2,0.8481000000000001
CdGeO3,0.8481000000000001
TcP4,0.8481000000000005
Cd(InTe2)2,0.8481000000000005
Ho4CdSe7,0.8481999999999998
TmAgTe2,0.8483
Pr4Te3N2,0.8483999999999998
In7Ni3,0.8483999999999998
LaFeO3,0.8483999999999998
PdSCl,0.8484999999999999
CuSe2Br,0.8486
CuP10,0.8487
YTl5Co2(NO2)12,0.8487
SmSbTe3,0.8487999999999998
Ba2SmUO6,0.8488999999999995
Li3CoOF3,0.8489999999999998
NbTe4Cl4O,0.8490000000000002
K2In12Se19,0.8491
BaMgTiO3,0.8491
Mo2P3O13,0.8492000000000001
GdTlS2,0.8492000000000002
Ti5Fe11O24,0.8494000000000002
Ti3Fe7O15,0.8494999999999999
HfMg30BO31,0.8494999999999999
Ba7SiN6,0.8496000000000001
Re2C3(ClO2)3,0.8496999999999999
LiMnVP2(HO5)2,0.8496999999999999
LiV6O11F,0.8497000000000003
Li2Ti2VO6,0.8497999999999997
MnSb2H8(SN)4,0.8498000000000001
Ba2LaUO6,0.8498000000000001
Na2Co3O4,0.8500000000000001
TaReO6,0.8500000000000001
Na3Mn2SbO6,0.8500000000000005
Co2(CO3)3,0.8501
Cs2AlGaH6,0.8501000000000001
KMn2O4,0.8501999999999998
CsGdCdTe3,0.8502999999999998
CaAl4Tl4O12,0.8502999999999998
MgZn2MoWO6,0.8502999999999998
Fe2PO5,0.8502999999999998
V5W3O20,0.8505
Cr2OF2,0.8505
Li9Mn7O16,0.8506
Eu5Si(Cl3O2)2,0.8506
Mg(SbO2)2,0.8506
Na(CoO2)3,0.8506
Li2Co(SiO3)2,0.8506
Rb4I2O,0.8507
Li9Mn2Co5O16,0.8507000000000002
NaFe9Si6B3H2O31,0.8508
Li2CrPO6,0.8508
Li3VFe3O8,0.8508999999999998
Li5(FeO2)4,0.8509999999999995
SrCu2GeS4,0.851
Na4Mg(NiO2)5,0.851
Rb2PdSe16,0.8510000000000002
Cr(ClO2)2,0.8511
Li7V3P8O29,0.8511
Rb3Au3Cl8,0.8511000000000001
MgMn3CoO8,0.8511000000000002
AgH,0.8512
LiVSiO4,0.8512999999999993
CsCoO2,0.8512999999999997
Fe6O5F7,0.8958000000000002
K2CoC4S4N4O3,0.8958999999999999
BaEuNbBiO6,0.8959000000000001
Be2NiN2(O3F4)2,0.8959000000000001
CuB2(CN)8,0.8959999999999999
Li4V3P8O29,0.8959999999999999
In5Se5Cl,0.8961000000000001
YbV4O8,0.8961000000000001
WO2,0.8961999999999999
MgScCr2Ag(H2O5)2,0.8962
Li5V3P8O29,0.8962999999999999
LiMg2Cu,0.8963999999999999
MgCr4O8,0.8963999999999999
Fe4O3F5,0.8964000000000001
La2MgTiZnO6,0.8964000000000008
Fe5(OF4)2,0.8964999999999999
Cs2Sb2Pd,0.8965999999999998
Fe3(OF2)2,0.8966000000000001
Li2Mn(PO4)2,0.8966000000000001
NiF4,0.8967
Fe5O3F7,0.8967999999999998
Ca2Al4Si4H18O25,0.8968
Li7Mn5O12,0.8968000000000003
Sr8MgMn6O20,0.8969
LiP2WO8,0.8969
Sr3UFe2O9,0.8969
Fe4O3F5,0.897
KGd2CuS4,0.8971
YbV4O8,0.8971
LiSi4NiO10,0.8973000000000001
Fe4O3F5,0.8973000000000002
MgFe4(NiO4)2,0.8974000000000002
KMgAg2SbS4,0.8975
YAgTe2,0.8975000000000009
Li3MnP2H2O9,0.8976
Na2Nb2Al6Si3(S3O16)3,0.8976
Fe5O3F7,0.8976999999999999
AlCuH28S2ClO22,0.8976999999999999
Li4Mn3O7,0.8977000000000004
Rb2TiSi3O10,0.8978999999999999
AuCl2,0.8978999999999999
Fe4(AsO7)3,0.8979000000000001
Ca(Ga3Te5)2,0.8979000000000004
Cs2CuSbCl6,0.8979999999999997
Ba2NdUO6,0.8979999999999997
ZnIn3AsSe4,0.8979999999999997
Fe5O3F7,0.8980000000000001
Na4MgMn2O6,0.8980999999999999
Li4V3P8O29,0.8981000000000001
Fe4O3F5,0.8981000000000001
Si3H,0.8982000000000001
Li4MnCo2O7,0.8982000000000001
MgV4(PbO6)2,0.8982000000000001
K2(TcSe2)3,0.8982999999999999
Li9Co7O16,0.8984000000000001
Li2MnV4NiO12,0.8984000000000001
Na4Mg(FeO3)2,0.8984000000000001
La2Mg(NiH4)2,0.8984000000000005
Fe6O5F7,0.8984999999999999
Li7Mn5O12,0.8984999999999999
Li3Mn3(PO4)4,0.8985000000000001
Fe6O5F7,0.8985000000000001
NaVZnP2O9,0.8985999999999998
RbO3,0.8986
SrMg14BiO16,0.8987999999999996
Na8MgMn2O8,0.8988999999999998
Rb2AlInI6,0.8989000000000003
Hg2As3Br,0.899
Rb2(TcSe2)3,0.899
MnV(PO4)2,0.899
Li4V3Sn3(TeO8)2,0.8990999999999998
MgCrSbO4,0.8990999999999998
V3Cr3(TeO8)2,0.8990999999999998
Li3V3CoO8,0.8990999999999998
Cs2KCuF6,0.8990999999999999
Fe5O3F7,0.8991000000000002
Mn6Te5O16,0.8991999999999996
Fe5O3F7,0.8992
TbAgTe2,0.8994
LaZnCrBiO6,0.8994999999999997
VAg3O4,0.8996
Li5V3P8O29,0.8996000000000001
Mn2V2PbO10,0.8996999999999999
Fe3(OF2)2,0.8998999999999999
AuClO2,0.8999
HoAgTe2,0.8999000000000006
Sr18Ni13O42,0.8999999999999999
NbBr2O,0.8999999999999999
Ba2ThCu2S5,0.9000000000000004
Li4TiCrO6,0.9001000000000001
SrLa9Mg2Ga6(FeO14)2,0.9001999999999999
BaLaMn2O6,0.9001999999999999
Li7(CoO3)2,0.9001999999999999
MgV4O5F7,0.9002000000000001
MgNb2(SCl)4,0.9002999999999997
Ga3NO3,0.9003000000000001
Rb2CuSbCl6,0.9004999999999996
MgNb2In2O8,0.9006000000000003
NaMg14MnO16,0.9006999999999996
Ba2Y2Mg(Fe2O5)2,0.9007000000000005
MgMn6Nb4O18,0.9008000000000004
Li4V2Fe5O12,0.9009
Mg2Co2O5,0.9009000000000004
Li4Mn3Cl10,0.9009999999999998
Li3Mn3(PO4)4,0.901
LiAgF4,0.9010000000000002
Co4NiO8,0.9011
KTeO7,0.9013
Li3Ti2Mn3O10,0.9013
TiSiPt,0.9013
MgTi3V5O16,0.9013000000000004
Ag2PbI4,0.9013999999999998
Si3H,0.9013999999999998
In4SnSe4,0.9013999999999998
Rb2LiSn4,0.9014000000000002
NaCu3O2,0.9015999999999996
Na3Ca10Mn7V12O48,0.9016000000000002
MgCu2(MoO4)2,0.9016000000000002
MgZn(FeO2)4,0.9016000000000002
HfMg14SbO16,0.9016000000000012
LiV8F33,0.9017
Li7Mn2(CoO4)3,0.9017
CaCrBiO5,0.9017
Li24Ti5Cr7O36,0.9017999999999996
MgV4O5F7,0.9018
CaBi2O5,0.9018000000000002
Li3V3Cr2O10,0.9019
Li3BH6,0.902
Li2MnV3O8,0.902
MgV6O5F19,0.9021
MgV4O5F7,0.9021
Fe5O3F7,0.9021
SrCd4S5,0.9023
Zn3(GaS3)2,0.9023
K2Se4O,0.9023
Na10Ca3Si6Sn5(SO8)6,0.9023000000000004
BeGeP2,0.9023000000000004
CsIn(SeO5)2,0.9025
MgV4O5F7,0.9025
Li24Ti5Cr7O36,0.9025000000000004
Li5Mn3(SbO5)2,0.9025999999999996
Li2MnV(PO4)3,0.9026
Gd6MgWO12,0.9026
MgFe2(CoO3)4,0.9027
SrMnO3,0.9027000000000004
Zr6GeI14,0.9028
Ba(CuS)2,0.9028
Li4V7O9F7,0.9028999999999998
Li2CuPO4,0.9028999999999998
CrWO6,0.9029
Li2CuPO4,0.9029999999999996
Sr2DyUO6,0.9030000000000004
Li4TiCrO6,0.9031000000000002
La6Si2NiS14,0.9031000000000002
K2AlB5O14,0.9032
V3Cr3(SbO8)2,0.9032
TlAg3S2,0.9032999999999998
MgMn3TeO8,0.9034
Na10Mg3Si6Ge5(SO8)6,0.9034
Li7Mn4CoO12,0.9034
Li2MnV(PO4)3,0.9035
MgCrCo5O12,0.9035999999999996
Li2CuPO4,0.9036999999999996
MgV5FeO12,0.9036999999999996
KCu3GeSe4,0.9037
CoSiO4,0.9037
MgWOF4,0.9038
MnZn(GaSe2)4,0.9038000000000002
V9O22,0.9038999999999996
RbNa8(GaP2)3,0.904
Dy2Mn2O7,0.9041
Na14Ca4Si7Ge4S5O48,0.9042000000000004
TiZn(BiO3)2,0.9043
HfPbN2,0.9043
SrMg14SiO16,0.904300000000001
BaMgNiO3,0.9044
Zn4CdSe5,0.9044
NaMnPCO7,0.9045
SrV10O15,0.9045000000000004
Sn2Pb5N6,0.9045000000000004
Rb2Gd4Cu4S9,0.9045999999999998
LiCo5SbO8,0.9046000000000004
LiMn(CO3)2,0.9049999999999998
LiCr(PO4)2,0.905
Na2AlAuF6,0.9051
Fe13O15,0.9051
V6H36C12O19,0.9051
Ba3Sr5Ti7MnO24,0.9051
ZnH22C5N18O17,0.9052
Li(CoO2)2,0.9052
LiV2(OF)3,0.9052
Li2CuPO4,0.9052000000000008
InGa2N3,0.9052000000000008
Zn(SbO2)2,0.9053000000000004
Rb2CoAuF6,0.9054
P28Pb5I2,0.9054000000000002
Na4Mg(CuO2)2,0.9054999999999996
LuMg2Cr3S8,0.9055
KPbN,0.9055
MgV2O4,0.9055999999999996
Fe3O4,0.9056000000000002
SrMg6VO8,0.9056999999999996
Fe8O9,0.9057
ZrPbN2,0.9057000000000004
LiMo2PO8,0.9058
Ni6OF11,0.9059
LiVCrP2(O4F)2,0.906
MgV4O7F5,0.906
MgAu4Se4(ClO3)4,0.906
W3(SeS2)2,0.906
FeHO2,0.9061
CaCd(NO3)4,0.9061
MgFe3OF7,0.9061
Mg6SiBO8,0.9062
Li7Mn5O12,0.9062
Li5Mn2Fe17O32,0.9063
Li9Mn7O16,0.9063
TeOs3(CO)9,0.9063
Mn5H8SO12,0.9064
Li3V3P8O29,0.9064
Ca2YWO5,0.9064000000000004
RbMg14CO16,0.9064999999999994
LiGdCl4,0.9065
Cs2Ni3S4,0.9065999999999996
Li4V5O10,0.9066
Li4TiCrO6,0.9066
MoBr3O,0.9067
Ba2V2F11,0.9068
K2Ga2Sb3,0.9068999999999998
Pr2Pb17Se20,0.9068999999999998
Sm(Tl3Te2)3,0.9070999999999998
HfMg14ZnO16,0.9070999999999998
MgMo2HO6,0.9070999999999998
CuPO3,0.9072000000000005
Cs2HgTe,0.9072999999999998
Na6Mg(CoO3)2,0.9072999999999998
Mg(SnO2)2,0.9073000000000002
Ba6MgSc2C2(O3F7)2,0.9074
Li4V5Co3O16,0.9074
Y2Cr2O7,0.9074999999999998
LiV2CrO6,0.9074999999999998
Na4Eu(SiSe3)2,0.9075999999999996
ZnCoF5,0.9076
CaSnS3,0.9076
Li5V4(PO4)6,0.9077
Ca2Cr2O5,0.9077000000000002
Mg(SnO2)2,0.9077000000000002
V5CrO12,0.9077000000000002
Mo3O7,0.9078
Li4FeCo3O8,0.9078
Ca4Sb2O,0.9078999999999996
LiSi2NiO6,0.9079
SeI2,0.9079000000000002
Sc(CuSe)3,0.9079000000000006
ZrCrCuS4,0.9079999999999996
W2SeS3,0.908
Sr2SnSe5,0.908
K4CO4,0.908
MoSI,0.9080000000000004
LiNd9Mo16O35,0.9081
CaTl6Si2O7,0.9082
MoO4,0.9082
LiNi(PO3)4,0.9082