formula,band_gap (MP)
Li12Mn11Fe(PO4)12,3.6905
Mg30ZnCdO32,3.6906
K2RbNdBr6,3.6907
Pr4Se3(O5F3)2,3.6908
Ca(H8O5)2,3.6908
Li2MnF4,3.691
CsLi2(HO)3,3.6914
Na7Zr3Ta(SiO4)6,3.6914000000000007
AsS(ClF2)3,3.6915
Li3VO4,3.6916
La3Tm2(GaO4)3,3.6918
DyZr6(PO4)9,3.6918
Ca2YAs(WO6)2,3.6919
Cs3Ta5O14,3.6919
Na3SmV2O8,3.6922
Li2Mn(PO3)4,3.6924
Ba2NaMn3F11,3.6924
H7IN2,3.6926
PC2NO4,3.6927
Ba2B2O5,3.6927
BaMg6VO8,3.6928
Mn3B7IO13,3.6928
Cs2YTlBr6,3.6928
NaMgH2C3O7,3.6929
NaLa4PS5O24,3.6929
Rb2FeF5,3.693
RbLuO2,3.6931
La3Ga5SiO14,3.6931
FeH5CN(ClO)2,3.6932
KMg30CrO32,3.693200000000001
Sr3Er2(GeO4)3,3.6934
NaH4IO2,3.6934
BaSnH16O11,3.6936
ZnHIO4,3.6937
Sm2Ge2O7,3.6941
SrDy2O4,3.6942
RbP4N7,3.6942
Na3CaSc3Zn(SiO3)8,3.6943
Ca7(H6Cl)2,3.6946
HC2SClOF2,3.6948
Li2Nd(NO3)5,3.6948
Na5Mg5In3(SO4)12,3.695
SiO2,3.695
Sn3SbF9,3.695
Ba2YBr7,3.6951
Na2ZrGe2O7,3.695300000000001
InSi4H39C14O,3.6954
KZnF3,3.6954
Na6Y8Si3(S3O16)3,3.6955
Li2Sm(NO3)5,3.6957
Li3ZnFe2(PO4)3,3.6958
C2SN2,3.6959
Mg2NbN3,3.6959
NaIO3,3.6962
Mg14VNiO16,3.6965
Si(H3C)2,3.6967
LiH2N,3.6967
Li3PF6,3.6969
HfMg14SbO16,3.6971
Ca3SiO5,3.6973
Na3TaSi3SnO12,3.6974
Ba2YBr7,3.6975
Rb2LiFeF6,3.6976
BaSrDy4O8,3.6976
Mg14ZnNiO16,3.6977
Na2Ti2O5,3.6979
Li4Zr3O8,3.6981
Li3ScCl6,3.6981
Li3Mo2(PO4)3,3.6982
Rb4Th(MoO4)4,3.6984
PrH10N(ClO4)2,3.6984