formula,band_gap (MP)
NbAlCl8,2.0128
SmMoBrO4,2.0128000000000004
LiCoO2,2.0128000000000004
Ba2Bi2O5,2.0129
Er2MgS4,2.0129
V2Zn2O7,2.0131
MgV(WO4)2,2.0131
Tm2MgS4,2.0132
MgCr2P2O9,2.0132
K3AsS4,2.0132
LiVOF3,2.0132
NdMgCu(WO4)2,2.0132
Mg6BiCO8,2.013399999999999
ZrI4,2.0134000000000003
Ba5(Ga2Se5)2,2.0136000000000003
AgMo6Br13,2.0137
LiFeP2O7,2.0137
PrSO,2.0137000000000005
Sr2Ti6N2O11,2.0139
CaH6PtO6,2.0139
Sn7(SBr5)2,2.014
MgV2P2(O4F)2,2.0141
SmI3,2.0141
As3H9RhC3(BrO)3,2.0141
CrC5SO7,2.0142
VP2Pb2O9,2.0142999999999995
V2HgO6,2.0142999999999995
V6O5F19,2.0143
Na9Mg4Nb2(PO4)9,2.0143000000000004
Na6Hf4In4Si5S7O48,2.0144
Na4CO4,2.0144
Te2MoW3(Se2S)2,2.0144
Na30Mg8Ta16Si27(SO16)9,2.0146
Te3W2Se,2.0146
VPH5O7,2.0147000000000004
CaV2(PO4)2,2.0147000000000004
Li3V2F9,2.0148
Li6Mn3Sb(PO4)6,2.0149
Ca2La2MgTi3O12,2.014900000000001
Yb(PrS2)2,2.015
LiFe3(OF3)2,2.0151
SiCl2,2.0151
Sr(AsO4)2,2.0151
FeHO2,2.0151
Na4MgTi2(GeO5)2,2.0152
C37F21,2.0155
C13Cl3,2.0155000000000003
Ba2TaN3,2.0155000000000003
LiVP2O7,2.0156
Na2Ti9O19,2.0157
SrCaTi2O6,2.0158
TiGa2O5,2.0158
Mn2Fe(CN)6,2.0158
Tl5Re6Se8Cl7,2.016
MgVFe(P2O7)2,2.0162
Ba2MgV2(Si2O7)2,2.0163999999999995
NaCr3O8,2.0164
Fe3TeC9SO9,2.0164
Co2BiB(PO5)2,2.0165
LiInO2,2.0165
LiV(PO3)4,2.0165999999999995
BaNaCeNbO6,2.0165999999999995
Li3V2OF7,2.0167
Na7Fe3O8,2.0167
Hf2N2O,2.0167
Ti3Fe(BiO3)5,2.0168
Fe4OF7,2.0168
SrCaDyBiO6,2.0169
NaSm3SiS7,2.0169
Ga(SbCl)4,2.0171
Na4NbIn3Si3(SO8)3,2.0172
KNaSe,2.0175
Ru4C14O13,2.0175
HRu6C16NO16,2.0175
RbMoPClO5,2.0175
CsK2IrF6,2.0177
KNdSnWO6,2.0177
KCeNdMnO6,2.0177
Na2La4Ta4Si5S7O48,2.0177
MgCr(WO4)2,2.0177000000000005
Y6Zn(SiS7)2,2.0178000000000003
Mn2Sb3I3O5,2.0179
Cr(Bi7O12)2,2.018
Li2V2P2O11,2.0181
LiCo2OF3,2.0181
NaSb(PS3)2,2.0182999999999995
Sr2TbBiO6,2.0184
NaS2,2.0185
NaNdS2,2.0186
HS7N,2.0186
BaSrMnWO6,2.0186000000000006
Li2CrPO4F,2.0187
LiVF4,2.0189
Ca3SnS5,2.0189000000000004
Ta3InO9,2.019
AgMoAsO6,2.019
UH16C4(NO3)2,2.019
Li2TiCr2O6,2.0191
Gd8Zr7O26,2.0192
Ga2RhC4Cl7O4,2.0192
USeO6,2.0194
CoP2WO8,2.0195
TeMoWSe3,2.0195
K2NaInBr6,2.0195
La2HgO4,2.0195000000000003
Ce2ThO6,2.0196
TePb2O5,2.0196
NaMnCl3,2.0196
Ga2TeS2,2.0196
MgP4(Br3O)4,2.0196
UH12C4S3O8,2.0197
YCr(WO4)2,2.0197
ZnSi4WO10,2.0197
Te3I(OF5)3,2.0198
LiHfMg14O15,2.0200000000000005
Er2MgSe4,2.0201
NaNbIn3P3(SO8)3,2.0202
LiVF4,2.0202
Hf2N2O,2.0202
Ag2Te3Mo3O16,2.0203
Bi2W2O9,2.0203
Ba2MgMo4(Se2O11)2,2.0203
MnNb2Zn2O8,2.0203000000000007
AsPO5,2.0204
Na3La2Nb2SiP5O24,2.0204
Li6PS5I,2.0205
BaNa5LiCo5F18,2.0206000000000004
NaVF3,2.0207
Al2RhC4Cl7O4,2.0207
BaMn2O8,2.0207
Cs3BiSe3,2.0207
CaIn2O4,2.0207999999999995
Y3NbO7,2.0208
LiFe2OF5,2.0208
Li3Fe3(PO4)4,2.0208
Ba2ZnS3,2.0208000000000004
Te2MoWSe2,2.0209
Sb2H8Pt(OF3)4,2.0209
Gd2Si4CN6,2.0209
Te2Mo(WSe2)3,2.0209
AlVMoO7,2.0209
KUH3SO8,2.0209
K2MgMnH4(I2O7)2,2.021
S7(N3O4)2,2.0213
Te2MoWSe2,2.0213000000000005
LiUPO6,2.0214
LiFe2OF5,2.0214
AgTeNO5,2.0214
Na2U(WO5)2,2.0214000000000003
Nb2Fe4O9,2.0215
SbIF5,2.0215
Bi17W3O34,2.0217
Na9Nb8Zn4Si3(P5O24)3,2.0217
C3NCl,2.0218
Li2VF5,2.0219
Na5InS4,2.0219
Cs5Th(PS4)3,2.0219
SrC2S2N2O3,2.0221
CaP2WO7,2.0221
NdZrNO2,2.0221
Mn4Nb2O9,2.0221
Hg2ClO,2.0222
Pr6Mg(GeS7)2,2.0222
Rb2LiNd2(WO4)4,2.0222
LiFe2OF5,2.0222
ZrI4,2.0222
KNa2AlH6,2.0222
Ba2CaV2(Si2O7)2,2.0222
Na14Y6Nb2Si9(SO16)3,2.0224
Na2UO4,2.0224
Na3TiZn3PS5O24,2.0225
Na2MnVF7,2.0226
Sr2NbN3,2.0226
Nb3O7F,2.0228
MgCr3(P2O7)2,2.0229
BaSrPrBiO6,2.0229
Rb2ScInI6,2.0229
SiC,2.023
Mg3Fe3(AsO4)4,2.023
Dy2PbS4,2.0230999999999995
Na2CrFeF7,2.0232
Cs2ScAuCl6,2.0233
Na3Mg4Nb8P15(SO24)3,2.0233
CsLiMnP3HO10,2.0233000000000003
Hf2N2O,2.0236
Ba4Ce2In2O11,2.0237
LiTiFeO4,2.0237000000000003
NaCa2V3(CoO6)2,2.0238
Rb4V2S4O19,2.0238
RbMg14SbO16,2.0239000000000003
NaY2Ti2P3(SO8)3,2.0239000000000003
LiFe2OF3,2.0239000000000003
NbFeO4,2.024
Rb2LiIrF6,2.024
Co2H26N12O13,2.0242
Na2Sc4Ga4SiS11O48,2.0242000000000004
AgMo2P3O13,2.0243
NaLi2FePCO7,2.0243999999999995
Al2HgS4,2.0244000000000004
Rb4Au6S5,2.0245
Li4Mn3Fe2Sn(PO4)6,2.0245999999999995
Er2Mn(GeO3)4,2.0246
V6O5F19,2.0247
CaMg14MnO16,2.0248
Cs2K2TeO5,2.0249
KAuC2,2.0249
Cr3H8(NO5)2,2.025
Fe2B(PO4)3,2.025
YMgMo(WO4)2,2.0251
Gd2Zr2O7,2.0251999999999994
TlCr2FeO8,2.0252
Hf2N2O,2.0253
Na5In3Ge(PO4)6,2.0253
Hf2N2O,2.0254000000000003
Ta2MnO6,2.0255
Os5(CO)19,2.0255
BaNaCeNbO6,2.0255999999999994
Na4InSi2GePO12,2.0256
Sr2CoWO6,2.0256000000000003
Na2Sm2Ti3O10,2.0256000000000003
BaYNbSnO6,2.0256000000000003
Li3MnVP2(HO5)2,2.0258
CaU2(BO5)2,2.0258000000000003
CdNCl3,2.0259
Ba(GaO2)2,2.0259
Sm2PbS4,2.026
MnTeMoO6,2.0261
LiTa3O8,2.0262
Ga2SiSn2S5O24,2.0264
P4Se3I2,2.0264
GdV(SeO4)2,2.0264
Sr2YBiO6,2.0265000000000004
NaCaCeSbO6,2.0266
Na4Bi2C4SO16,2.0267
TiZn(GeO3)2,2.0269
Ta2Cd2O7,2.0269
Ba3SmInS6,2.027
Sr3HoRhO6,2.027
CsNaSe,2.027
Li2Cr5(PO4)4,2.027200000000001
Fe4Bi2O9,2.0274
Na14Ti4Al4Si9(SO16)3,2.0274000000000005
CsAlFe3(SiO4)3,2.0275
LiV2F7,2.0275
Cs2CaTm2(WO4)4,2.0275000000000003
SrLaCrSnO6,2.0276
MgNi2(WO4)2,2.0277000000000003
K2MnH4(SeO5)2,2.0277000000000003
SrHN,2.0279
KMoPClO5,2.0279000000000003
SbPHO5,2.0280000000000005
Li4Mn5Sn(PO4)6,2.0280000000000005
MgSn(GeO3)2,2.0280000000000005
Hf2N2O,2.0281
Na4CaTi3(PO4)6,2.0281
Sr2YMgSbO6,2.0282
TeH12AuC4S3N,2.0282
Ba2ScCuO4,2.0282000000000004
Li4Co7(OF7)2,2.0283
CaV2CoO7,2.0284
K6Sb2H18S8O9,2.0284
CaP4(Br3O)4,2.0285
H2CS3,2.0285
Ti3Mn2Ni(PO4)6,2.0286
InBrO,2.0286
La2TeO2,2.0287
Na3V2P2O10F,2.0287
CaGeO3,2.0287
Na15Mg7Nb5(PO4)18,2.0287
NaY3NbP3(SO8)3,2.0287
Li2Fe2OF6,2.0287
SbO2,2.0287999999999995
LiVF4,2.0288
K2TaCuSe4,2.0288000000000004
Li2MnF5,2.0289
LiZnCr3(SO4)6,2.0289
Zn3Sb2H42(S4N7)2,2.0289
Hf2N2O,2.029000000000001
Ca5(ReO6)2,2.0291
InH8C8N4Cl7,2.0291
Na2La3Ta5Si6(SO8)6,2.0292
RbMg14WO16,2.0293
Rb8BaNaAl11Si13O48,2.0294
Ce2Sm2O7,2.0295
CsMg30FeO32,2.0295
KNa2WN3,2.0295
RbV2Fe(AgO4)2,2.0295
CdBiBF10,2.0295
Pr2PbS4,2.0295000000000005
Hg3AsClO4,2.0296
SrV3O7,2.0297
Sr2MgZn2Sn2(PO4)4,2.0298
LiVOF3,2.0298
Na2Mg3Zr(SO4)6,2.0298
LiCr(SO4)2,2.0298
TiFeBiPbO6,2.0298
H12C2N14O,2.0299
RbLuSe2,2.0299
Na8TiO6,2.0299
Na3ClO,2.0299
Rb2HgO2,2.03
Na3CaTi(PO4)3,2.0301
CaPtO6,2.0301
FeB18H32(C4S)2,2.0301
Na5CaSiSn3P5O24,2.0302
LiVF4,2.0304
KUVO6,2.0305
Na6Ca4Nb2Si3(SO6)6,2.0305
Zr2N2O,2.0306
LiCoAsO4,2.0307
Na8CaTi3Si5SO24,2.0307
Li2Cr2O7,2.0307
Na3GdTi2Nb2O12,2.0309
Ge(PbS2)2,2.0309
TiV2O7,2.0311
Ba(LaI4)2,2.0311000000000003
TlBi(PS3)2,2.0312
Pr6Cd(GeS7)2,2.0313
Ga2PbSe4,2.0313
Na3CaInSi(SO6)2,2.0313
V3P4Pb2O17,2.0313
NdSI,2.0315
K4SnO3,2.0315000000000003
Sr3TiNb4O15,2.0315000000000003
K2CrH2F8,2.0316
NaYTiP2SO12,2.0316
SrMn2V2O8,2.0316000000000005
Na3Ca2Nb4(PO4)9,2.0317
BiS4N3Cl4,2.0317
Li2VOF4,2.0317
Hf2N2O,2.0318
Li4Co7(OF7)2,2.0318
NaSrGdSeO6,2.0319
LiVF4,2.0319000000000003
BaSm2PdO5,2.032
SrCaLaBiO6,2.0322
AlSnO3,2.0322000000000005
TbV(SeO4)2,2.0322000000000005
MgScNi2SbO6,2.0324
ScAg(PS3)2,2.0325
LiVF4,2.0326
Bi26Mo10O69,2.0327
SrCaDyBiO6,2.0327
Na2Zr2O5,2.0327
Cs6U5(AsO7)4,2.0327
Os(OF2)2,2.0328
Li2VF5,2.0328
Na2SnO3,2.0329
K2Cd(AuS)4,2.0329
K3AlTe3,2.0332
Na4Mg(FeO3)2,2.0333
Mn3(BO3)2,2.0333
Na4UCr3O14,2.0333
Rb2UH2(SeO5)2,2.0334
Sr3CdPtO6,2.0334
Ta7InO19,2.0335
Li3CuS2,2.0335000000000005
Ho2ScNbO7,2.0336000000000003
SrLiTi4CrO11,2.0336000000000003
Re2S2O13,2.0338
Li2Mn4OF8,2.0338
Li2VCrP2(O4F)2,2.0338000000000003
Rb4SnO3,2.0339
LiCrPO4F,2.0339
USe2O7,2.0339
Li2U3(PO5)4,2.034
Rb2TlCoF6,2.0341
Cs2MgO2,2.0341000000000005
Ba2Mn(PO4)2,2.0343
Te6Mo3WS2,2.0344
Tb2PbS4,2.0344000000000007
TlV(SO4)2,2.0345
BaSrDyWO6,2.0345
Pm2MgSe4,2.0347
Rb5Th(PS4)3,2.0349
TaBr5,2.0349
PrAlH6,2.0349
Na4H6Ru,2.0349000000000004
LiVP2O7,2.0349000000000004
UAs2H6O11,2.035
Cs3HgI5,2.035
LiFe(GeO3)2,2.0351
CoH10(SeO5)2,2.0352
Na6CaSi2Sn3(PO6)4,2.0352
K2ScAuCl6,2.0353000000000003
Lu3NbO7,2.0354
Ta3O7F,2.0355
Na2Zn2S3,2.0356
NdAlH6,2.0357
Gd2MgPtO6,2.0358
NaSc2Ti2P3(SO8)3,2.0359000000000003
BaSrLaWO6,2.036
Na3IrF6,2.0362
NiH16C2S3N6O7,2.0363
VCdPHO6,2.0364
CaV5H19O23,2.0365
LiVP2O7,2.0367
Li2MnGeO4,2.0368
CeTh2O6,2.0368000000000004
SnGeO3,2.0369
Na6Ca4Nb2P6(SO12)3,2.0369
FeMoO4,2.037
Sm2MgSe4,2.037
Li5Fe(P2O7)2,2.037
Te4MoW3(SeS)2,2.037
Si4H2O9,2.0370000000000004
LiBiO2,2.0370000000000004
Li2NbCr3O8,2.0370000000000004
LiPH22(C2O)4,2.0371
K2Ge2O3,2.0371
BeH48C20I6(N2O)4,2.0372
Li2AlCr2SbO8,2.0373
CsCu2ICl2,2.037300000000001
Li3V3(PO4)4,2.0374
Li5Cu(PO4)2,2.0374000000000003
HgH16(Br3N2)2,2.0375
ErI3,2.0376000000000003
LiVP3HO10,2.0377
Li4MnV(PO4)3,2.0378
Ba3V4(PO4)6,2.0379
MnH12C2(NCl2)2,2.0379
Na2UO4,2.0379
Y(BiO2)3,2.038
Ba8Sr(BN2)6,2.038
BaSrTbWO6,2.038
NaNbCl6,2.0380000000000003
LiV(OF)2,2.0380000000000003
BaSrYWO6,2.0381
Hf2N2O,2.0381
Na4MgNbSi2PO12,2.0381
Na3Ca2Nb2P5SO24,2.0381
MgPSe3,2.0382
CaC2,2.0383
Li3Mn2F9,2.0384
SnS16(Cl2O)2,2.0385
K4NaNb5O15,2.0385
Rb3TmO3,2.0385
Na5TiIn3(PO4)6,2.0386
Cs2YCuBr6,2.0386
Si2P3RhO13,2.0386
Sr5(ReO6)2,2.0386999999999995
V2P2H4O11,2.0387
Na30Ca16Ta8Si15(S7O48)3,2.0387
UTl2(MoO5)2,2.0387
CeAg6(NO3)9,2.0387
BaBi4O7,2.0387000000000004
Zr4N2O5,2.0388
Li2MoF6,2.0388
Li5Cu(PO4)2,2.0388999999999995
HgTe(H2O3)2,2.039
K2RbBiSe3,2.039
LiVP2O7,2.0391000000000004
Ca3Mn3(AsO4)4,2.0392
K4V2S4O19,2.0392
H12RuC4S2N2Cl2O5,2.0392
Rb2Pb2O3,2.0393000000000003
Sb2OF8,2.0393000000000003
Rb3LuO3,2.0394
Na4Sb2C4SO16,2.0394
LiMg6SiO8,2.0394999999999994
Yb(NdS2)2,2.0395
Mg3(AsO4)2,2.0396999999999994
Li2MnOF3,2.0397
CaLa2WO6,2.0397
VAgP2O7,2.0397
C8Cl5,2.0397
KRb2AsI6,2.0398
H16PdC4S4(N4Cl)2,2.0399
Ce2ZrO6,2.0399000000000003
K2PdF6,2.0399000000000003
CaHo(WO3)2,2.04
TiZn2O4,2.04
Bi2CO5,2.04
Na3InBr6,2.04
KLiSnO2,2.0401
Cd5Si(PO6)2,2.0401
K2LiFeO3,2.0402
FeSnH12(OF)6,2.0402
Cd3BPO7,2.0403
Rb2Ga2Ge3O10,2.0403
Co(HO)2,2.0404
MgCo6(OF5)2,2.0405
Mg6CoCuO8,2.0405999999999995
Ba4Ta10FeO30,2.0407
H4CN4O,2.0407
Na2Ta2Ga6Si3(S3O16)3,2.0409
V6O5F19,2.041
Li2V(Si2O5)3,2.041
KLiMn2(SiO3)4,2.041
Li3Cr(PO4)2,2.0410000000000004
LiPrS2,2.0411
Na4GeH28(Se2O7)2,2.0411
Hg3H6Pt(NCl4)2,2.0411
Cs2HgI4,2.0411
LiCo2OF3,2.0411
Ti4Bi2O11,2.0411000000000006
H16PdC4S4(N4Cl)2,2.0412
Ho3TaO7,2.0412000000000003
K14In4O13,2.0413
Ce4ZrO10,2.041300000000001
Rb3ErO3,2.0414000000000003
Na5InO4,2.0415
V6O5F19,2.0415
K6Sn2S7,2.0416
P2WO8,2.0417
LiVF4,2.0418
Gd2NbGaO7,2.0419
PrCrO3,2.0419
Na3LaSiSn(PO6)2,2.0419
Zn4As2O9,2.042
Na14La4Si9Sn4(SO16)3,2.0421
LiV3P2(HO3)4,2.0421000000000005
Mg3MnNi3O8,2.0422
Sr5U3O14,2.0422
KThCuS3,2.0422
Na2Nd2Ti3O10,2.0423
Y2MgSe4,2.0424
Zn(SnO2)2,2.0424
Na2Sc3NbP4(SO12)2,2.0426
BaNiO2,2.0426
K6Ba2CaU6O24,2.0426
Na3NbAs2O9,2.0426
Na6Mg2Nb4Si3(PO6)6,2.0427
V4CrFe3O16,2.0428
Cs2Tm2Mg(WO4)4,2.0428
LiVSiO5,2.0428
CrGa(BiO3)2,2.0429000000000004
BaGd2PtO5,2.0430000000000006
Co5P4H12(O8F)2,2.0431
Hf2N2O,2.0431
MnClO3,2.0431
Sr2Co(BrO)2,2.0432
Fe4H12C15O31,2.0433
La2HfNiO6,2.043399999999999
VFeMoO7,2.0434
Mg2ClO3,2.0435
SrFe2S2O,2.0437
Tb3Se2NO,2.0437
Ba3LaZnReWO12,2.0438
Na4YNb3Si5SO24,2.0438
Ag2WO4,2.0439
LaBr3O7,2.0441
Ba4Na(BN2)3,2.0441
Hg2C3I5N,2.0441000000000003
S,2.0442
V4Cd9O19,2.0442
Rb2ScAuCl6,2.0443
H6N4O9,2.0445
VOF2,2.0445
Na4Mg(BiO3)2,2.0446
FeSO4F,2.0446
Y6Mg(SiS7)2,2.0446
Li2Mn3(SiO4)2,2.0447
Cs2Sn(AuS2)2,2.0449
RbMgNiF6,2.0450000000000004
Ba2Mg(WO4)2,2.0450000000000004
LiP4WO13,2.0451
Hg2MoO4,2.0451
YAlN2,2.0451999999999995
CsSr2Ta3O10,2.0452000000000004
H9CN9,2.0452000000000004
Co3(AsO4)2,2.0452000000000004
LiV(SiO3)2,2.0453
SrCaU2O8,2.0454
K2AgSbF6,2.0454
Na3YGe3(PO4)6,2.0454
NaCaSn3P3(SO8)3,2.0455
KGdSnWO6,2.0455000000000005
Fe4OF7,2.0456
K3Nb2Ag3S8,2.0457
Na2Mo(HO2)2,2.0458
Na7MgSbO6,2.0459
Na9Ca11Ta(SO4)18,2.0459
Hf2N2O,2.0459000000000005
Na5ZnSiGe3P5O24,2.0459000000000005
Na2Hf2Si3Sn2(SO8)3,2.0460000000000003
MgFe2(NiO3)2,2.0460000000000003
Zn(SbO2)2,2.0461
Lu3NbO7,2.0461
BaV2(P2O7)2,2.0462
Sr2TaFeO6,2.0462
Pr2MgS4,2.0464999999999995
Na3MgNbSi(PO6)2,2.0466
Na4CaTiSi2SO12,2.0466
Te2MoW3(SeS2)2,2.0466
Rb5Al(MoO4)4,2.0466
Ba9La5I33,2.0466
Ba2InO3F,2.0466999999999995
Cs3MnI5,2.0469
Ca2SnWO6,2.0470000000000006
BaNaLaSeO6,2.0473000000000003
Te4MoW3(SeS)2,2.0474
TiNb2O7,2.0475
Te2MoW3(Se2S)2,2.0475000000000003
Nd2SiTeO4,2.0477
In5Br7,2.0479
KNa2AuO2,2.0479
Nd2MgSe4,2.0479000000000003
PrSI,2.0481000000000003
Rb3TlCl6,2.0482
Na15Mg4Nb8Si9(PO8)9,2.0482
Er(BiO2)3,2.0482
Sr2CeGeO6,2.0483
NaPrS2,2.0483
Sb2(CN2)3,2.0483
Ta2MnO6,2.0483
Na5V12O32,2.0484
Nd6Cd(GeS7)2,2.0485
MgFe2(NiO3)2,2.0485
Y3TaO7,2.0487
BaMoF7,2.0489
KCaYSeO6,2.0489
KTl(SO4)2,2.049
KInP2S7,2.049
Li2Ti3NiO8,2.049
Li2VOF4,2.0491
RbNaMg14O15,2.0491999999999995
LaTa2NO5,2.0492
In2Pt2O7,2.049200000000001
Li2CrPO4F,2.0493
CsAu(IO3)4,2.0493
VFeO4,2.0493
SbXeF9,2.0494
KLaCeGeO6,2.0494000000000003
Ca(SnO2)2,2.0496
Ba2SrUO6,2.0496
Al5(FeO4)3,2.0496
LiNi2O2F,2.0497999999999994
LiGa4(WO6)2,2.0499
Ca3ZnSe4,2.0499
LiFe(Se2O5)2,2.0499
TaO2F,2.0499
BaP3HNO9,2.05
LiZn2AgWO6,2.05
CrH14N3O8,2.0500000000000003
Li3CuS2,2.0501
TeMoWSe2S,2.0502
Sr2GeS4,2.0504
Ca10V6O25,2.0504
Cs4U2V2O13,2.0504
MgV4O10,2.0507
Tm2MgSe4,2.0508
LiFe(SO4)2,2.0509
NaSbCl6,2.0509
Zn3P2(HO2)4,2.0509
Tb2MgSe4,2.0509000000000004
Ca3Fe4(WO4)6,2.051
SbC(Cl2O)2,2.0511
B5SbO10,2.0512
SbP3C(NCl5)3,2.0512
Mg3V2(Si2O7)2,2.0513000000000003
Lu2S3,2.0514
Na4Zn3SiSnS5O24,2.0516
SrCaLaBiO6,2.0516
U(IO4)2,2.0516999999999994
YInO3,2.0516999999999994
LiFe(SO4)2,2.0517
Li5Cr(CO3)4,2.0518
Na7Cr3Co(PO4)6,2.0518000000000005
SrCaYBiO6,2.0519
Ta2Co4O9,2.0519
Hg2W2O7,2.0519
NaMnF4,2.0519
CoH16RuN10ClO10,2.0519
K2CuCl3,2.0520000000000005
TiFeO3,2.0522
Pr2MgPtO6,2.0522
Li2AgF3,2.0522
Zn2As2O7,2.0523
K3AuSe2,2.0524
Li6Fe(BO3)3,2.0524000000000004
KV5Co(H8O11)2,2.0525
PmI3,2.0525
Li2MnF4,2.0526
Li3CuS2,2.0526000000000004
Na2FeSO4F3,2.0527
Ca7SiN6,2.0527999999999995
Ba4LiNb3O12,2.0531
Fe3OF7,2.0533
Hf2N2O,2.0534
MgMn2V2O8,2.0534
Sr3Li4(GeN3)2,2.0534
SrCaTbBiO6,2.0534000000000003
Rb2Pr2Mg(WO4)4,2.0535
Li3Mn5OF11,2.0535
CaThBr6,2.0535
Li12Mn3CoP4(CO7)4,2.0535
Si2H2O3,2.0535000000000005
BaLa2Ti3O10,2.0536000000000003
GeBi2O5,2.0537999999999994
Sn(GeO3)2,2.0538
CeH12N5F4,2.0538
VZnAs2O7,2.0539
UH17C10N3O10,2.0539
MgBi2(PO5)2,2.0539999999999994
Na2La2Sc2SiS5O24,2.0540000000000003
MgAl4Cr2O10,2.0540000000000003
La2Se2O,2.0543000000000005
Rb2Pr2Mg(WO4)4,2.0543000000000005
Mg6AlBO8,2.0543000000000005
BaMnVF7,2.0544
Na7MgSbO6,2.0544
Li3Fe2(CO4)2,2.0546
SrMg6BiO8,2.0546
Li6V2OF11,2.0546
Mg14CoSiO16,2.0546000000000006
CaZnSe2,2.0547
Y6Zn(GeS7)2,2.0547
Sn(PbO2)2,2.0548
KSiBiS4,2.0549
KLaNbCrO6,2.0549
TiOF2,2.055
Li10Ge(PS6)2,2.0551
MgZrO3,2.0552
CaMnAs2(H3O5)2,2.0553
NaNd3GeS7,2.0553
Na4Ge2PbS6,2.0553000000000003
Nd7(S2Cl3)3,2.0553000000000003
MgCrFe(BiO3)2,2.055400000000001
LiTbS2,2.055400000000001
Ga2Pb2S5,2.0555
TlAsH2F10,2.0555
Ce2Y2O7,2.0556
KNa2LiTi2Fe2(SiO3)8,2.0557
Sc2SiSn2S5O24,2.0558
Hg4HN3O10,2.0558
Y6Mg(GeS7)2,2.056
MgV3(P2O7)2,2.0561
Na9Mg2Nb4Si6(PO12)3,2.0563
KMnO4,2.0563
K9Bi(PS4)4,2.0563
MgMnPb2WO6,2.0564
Na4Nb3InSi5SO24,2.0564
Sm6Cd(GeS7)2,2.0564
MgVCrP2(HO5)2,2.0566
CsAgBr2,2.0566
FeHO2,2.0566000000000004
BaLa2Ti3O10,2.0566999999999998
K4CO4,2.0567
MgInBr3,2.0567
Zn(AgI2)2,2.0567
Rb3YO3,2.0568
BaH2PdN4O9,2.0568
Ga4GeO8,2.0569
Rb2LiNd2(WO4)4,2.0569
MnCrF5,2.0569
Hf2N2O,2.0569999999999995
NaGa2Ge2P3(SO8)3,2.057
Ca(PrS2)2,2.0570000000000004
NaCr(WO4)2,2.0571
K3RhF6,2.0571
Cs2ScAgI6,2.0571
CaTiFe5O8,2.0571
Sr2H3I,2.0572
Li2VCrP2(O4F)2,2.0572
Hg2ClO,2.0573
Ca2Sn3O8,2.0574
ZrI4,2.0575
SrPrCrSnO6,2.0575
Li5BiS4,2.0577
KLaCeHfO6,2.0577
K6W2N4O3,2.0577
Yb(SmS2)2,2.0578
KCu2H2C2BrN2O,2.058
Ca10V6O25,2.0581000000000005
LiY2(FeO2)4,2.0582
Na5Y2Nb2Si3(PO8)3,2.0582000000000003
Ta2FeO6,2.0583
K2AgBiCl6,2.0583
Na4Ti11O24,2.0584
Tm2MgS4,2.0584
Y2NCl3,2.0584
Cd2BiAsO6,2.0584
VH26(C3O)4,2.0585
NaSrCrF6,2.0585
KNbO3,2.0585
Ba2NbBiO6,2.0586
KSmSnWO6,2.0587000000000004
UH6C2SeN3O7,2.0588
Mg3Fe2(Si2O7)2,2.0588
RbTlF3,2.0588
Mg30VNiO32,2.0588000000000006
Rb2Nd2Mg(WO4)4,2.0589
MgV4O10,2.0589
Na8CaSi4Ge3(PO12)2,2.0589000000000004
As2Pb8O13,2.059
Na3LaTiSi(PO6)2,2.0591
Rb2InAsF6,2.0591
Li2CrSn(PO4)2,2.0592
Li3Nb3TeO12,2.0593
ZnHC4O3,2.0594
Li3MnFeCo(PO4)3,2.0595000000000003
La2Ti3O9,2.0596
Rb14Na3Al17Si31O96,2.0598
LiV3(P3O10)2,2.0598
RbSnBr3,2.0599
HfSiGe(SO6)2,2.06
Rb2AgBiCl6,2.06
BaCaSmBiO6,2.0601000000000003
FePH2O5,2.0601000000000003
Sr3Zr2Nb2O12,2.0602
Zn(HO)2,2.0603
K9Fe2O7,2.0603
Sm2Fe2O5,2.0605
Ca2YBiO6,2.0605
Cs2YAuF6,2.0605
CoH7C3NO7,2.0607
Li3V2(PO4)3,2.0608
Na14In4Si9Ge4(SO16)3,2.0608
Li3Nb7O19,2.0609
Zn(GaS2)2,2.061
Na2CeO3,2.0610000000000004
RuC4(IO2)2,2.0611
Ba(BO2)2,2.0611
Ca(NdS2)2,2.0613
Bi3O4F,2.0613
LiTiFeO4,2.0614
NaUH9(SeO6)2,2.0614
CaAsO5,2.0614
Cs4K2Cu(SiO4)2,2.0615
Na8NbAl3Si5SO24,2.0616000000000003
BaNdDyMnO6,2.0617
LiV2P5O16,2.0618
Rb3SbS4,2.0619
Zn3Cr2(Si2O7)2,2.0619999999999994
Na5TiGa3(PO4)6,2.0620000000000003
LaTl2P2S7,2.0622
Cu2H26C6S7N12O5,2.0622
Na3CaTaSi2SO12,2.0622
Cs4U3Mo3O20,2.0623
Bi3P3O14,2.0623
Pr2Se2O,2.0624
Na2FeCoF7,2.0624
UHg(MoO4)4,2.0624
Na2TlAsF6,2.0624
Na7Mg3TiP5SO24,2.0624
Li6TeN4,2.0625
Dy2MgSe4,2.0625
KCaDySeO6,2.0625000000000004
Cs2Hg2H2I4Br2O,2.0626
Cs2TlAsCl6,2.0627
Nb2Co4O9,2.0628
KSrCeNbO6,2.0628
Li7Fe3Ni(PO4)6,2.0628
BaCaCeSnO6,2.0629
NaGd3Ti2(SbO7)2,2.0629
TlSbCl6,2.063
Ba3Er2MoO9,2.063
Na3RhF6,2.0631
LiVF4,2.0631
CsSnI3,2.0632
V2CoP2(H4O7)2,2.0634
Nb2FeO6,2.0635
KNaSe,2.0636
Ho2Mn(GeO3)4,2.0636000000000005
KLi2FeO3,2.0637000000000003
Bi24Cl10O31,2.0638000000000005
Na7La2Nb2Si5PO24,2.0638999999999994
Ge3N4,2.064
CaZn2Si2HO7,2.064
Al2SiGe2S5O24,2.0641
Rb2LiPr2(WO4)4,2.0641
RbSbCl6,2.0641
Na10NbGa7Si6(SO8)6,2.0642
Cs2PtCl4,2.0642
P2Pb8O13,2.0642
Ba4In2Te2S5,2.0642
Ba2MgMo4(P2O7)4,2.2343
KLaGdSbO6,2.2343
Ca3Fe2(Si2O7)2,2.2344
Li4V3OF11,2.2345
NaMg30CoO32,2.2345
KLaZrTiO6,2.2347
K2NdAuCl6,2.2347
TiNbSbO6,2.2347
Cs2AlInBr6,2.2348000000000003
Na2Sr2Nb4O13,2.2349
NaSrLaSeO6,2.2349
RbMg30BO31,2.234900000000001
Na4S2O5,2.2351
BaSrCeSnO6,2.2351
Li8TeN2,2.2352
BaO2,2.2352
GaS5N5Cl4,2.2352
Ba4Ta2TiZnO12,2.2354
MgH16(IO8)2,2.2356
Ba2TiS4,2.2356
CsAs3O8,2.2357
Ag2H16O9,2.2358
Na2AlAgF6,2.2358
Sr(LaS2)2,2.2358
Mg14CdSiO16,2.2359
Na3VSi4(HO6)2,2.2359000000000004
Sr2H6Ru,2.2360999999999995
Zr2Ti3(PbO3)5,2.2361000000000004
HgTeO3,2.2362
Na6U(Mo2O9)2,2.2362
Li3V(PO4)2,2.2363
Li2ThN2,2.2363
NaLaGdSbO6,2.2363000000000004
NaCaTbSeO6,2.2364
NdCrO3,2.2364
KU2P3O14,2.2365
Na2Hf4In4Si3(S3O16)3,2.2365000000000004
Er2MgSe4,2.2366
V2Zn2O7,2.2367
Ba6Nb4S13O3,2.2367
BaZnSO,2.2367
Nb5P7O30,2.2367
LaN2Cl5,2.2368
LiV2F5,2.2369
Cu4H24C13N7Cl,2.237
Li2VSO4F3,2.237
Li4MnF8,2.2371
Al6W5N16,2.2371000000000003
Na4LaNb(SiO4)3,2.2372
K2TeBr6,2.2372
TeH14C3S3(N3F2)2,2.2372
H4CN5O,2.2373000000000003
SrBiNO5,2.2375
K2CeAuCl6,2.2375000000000003
NdTa3O9,2.2375000000000003
MnH9CNCl3O2,2.2377
Te2Mo3WSe6,2.2377
HgH16(Br3N2)2,2.2377
NaLi3Ti2Fe2(PO4)6,2.2378
Li4Cr(WO4)3,2.2378
Na15Mg8Nb4P15(SO24)3,2.2379
YNiF5,2.2381
Na9Ta7Zn5(PO4)18,2.2382
SrCo(GeO3)2,2.2382
LiCrP2O7,2.2382000000000004
Na9Mg8Nb4P9(SO8)9,2.2383
YCrO3,2.2384
Li2Co4OF8,2.2384
Li3Ni4O4F3,2.2384
Li3MnO3,2.2384
Na14Mg5Ti3(PO4)12,2.2384000000000004
Na2Cd(GeS3)2,2.2385
UH14(NO2)4,2.2385
MgCr(PO3)4,2.2385999999999995
BaCr2O4,2.2386
MgMoP2O7,2.2387
TiCdO3,2.2387
BaSm2NiO5,2.2387000000000006
LiVP4(H2O7)2,2.2388000000000003
K2Ge2S5,2.2391
Ba2H3I,2.2391
Li2VOF4,2.2391
Cs2LiTm2(WO4)4,2.2391
ReAsC5SNO5F7,2.2391
K2PrAuCl6,2.2392
SbP2O7,2.2393
AlGa3N4,2.2393
LiCrP2O7,2.2395
K2Mo(SO)2,2.2395
KCaV2F9,2.2395
K3Si3N5,2.2395000000000005
Li3Fe8O3F13,2.2396000000000003
Na3VBAsO7,2.2396000000000003
SrTa2H2O7,2.2398
POs6C18ClO18,2.2398
Te4O9,2.2398
H6C6NO,2.2398
SnHg2(SBr)2,2.2399
Sb3PO7,2.24
Li3Fe(PO4)2,2.24
Co7Te4(BrO2)6,2.2401
NdSbO4,2.2404
BaZr2Ti3Pb4O15,2.2404
Al2BiSe4,2.2404
Al2(PS3)3,2.2406
Mg6CuSnO8,2.2406999999999995
LiMgCr3Se2(SO6)4,2.2407
BaLaI5,2.2409
NaZnSn3P3(SO8)3,2.2409
MgVAs2O7,2.2409000000000003
Na14Ca4In4Si5S7O48,2.241
Na10Zn4Ga4Si3(S3O16)3,2.241
Ba2TaTlO6,2.241
TiZn(SO4)3,2.2411
NaSc2Sn2P3(SO8)3,2.2411
NaLaNb3SiP5O24,2.2412
WF5,2.2412
Rb2NdAuCl6,2.2412
BiKrF7,2.2415000000000003
Na2ZrWO6,2.2416
BaSr2UO6,2.2417
Na7TiZn3P5SO24,2.2417
Ba2NaIO6,2.2417
Li5Mn2P2(CO7)2,2.2417
Sr4Se3S,2.2418
Ba9(LaS6)2,2.2418
MgUB2O7,2.2418
Li2Cr2O7,2.2418
Na4YSi2SnPO12,2.2421
Pm2S3,2.2423
Rb3V5O14,2.2424
H16PtC4(NCl3)2,2.2425
H12WC2(S2N)2,2.2426
Ho2TiO5,2.2426000000000004
Li6Ti2O7,2.2426000000000004
V2Co(H4O5)2,2.2427
Ba3Y2O6,2.2427
Ba2Li3Y3(MoO4)8,2.2428
KV2PO8,2.2428
Li2FeOF3,2.2428