formula,band_gap (MP)
U2CuAs2(H4O5)4,1.1269
Li2V3SnO8,1.1269
MgTiZn(BiO3)2,1.1269
Li5CrO5,1.1269999999999998
UBr4(NO2)2,1.127
LiV2P4(HO8)2,1.127
Li24Mn7Cr5O36,1.127
InHg6Sb4Br7,1.127
MgMnV4O12,1.1271999999999998
Nb2Bi3Pb2ClO11,1.1272000000000002
Li4TiCo5O12,1.1273
Na3MnSiCO7,1.1273
Li7V7(P4O17)2,1.1273
Zn4(MoO4)3,1.1273
Na2Cu(Si2O5)2,1.1273000000000004
Li4V2Co3Sn3O16,1.1273999999999995
Rb3LiTbV2O8,1.1275999999999995
LiAgF4,1.1276
PrN,1.1276000000000002
TmSI,1.1276999999999997
Dy3CuGeSe7,1.1277
Ca2IrWO6,1.1277
CaLaMnMoO6,1.1277999999999997
Ba3(PSe4)2,1.1278
MgMnBiO5,1.1278000000000006
Mo2P4O15,1.1279
Li4V5(Fe2O9)2,1.128
PdSCl,1.1282
Na4Zn3Se5,1.1282
MnH30C6(Se2N3)2,1.1282
Mg6VCdO8,1.1283000000000003
K2In3CuSe6,1.1284
KCrP2S7,1.1285000000000005
Si,1.1285000000000005
Al(FeO2)3,1.1286
H2SeNO4,1.1286
NaSi,1.1286
MgZn2CoWO6,1.1286999999999998
K3Mo4O16F,1.1287
KFe11O17,1.1288
Ag3As2C3Se5N,1.1289
LiVCrP2(O4F)2,1.1289999999999998
Rb3Mn2Br7,1.129
Li3V4CuO12,1.1290000000000002
CaB12(H3O)8,1.1290000000000002
Nd3CuSiSe7,1.1291000000000002
Hg3(SeI)2,1.1291000000000002
Na6Se2O9,1.1291999999999998
Li4V3P8O29,1.1292
Te2MoWSe2,1.1292
Li32Ti3Cr13O48,1.1293000000000002
K7NbAs4,1.1294
K8MgCo2(Mo4O15)2,1.1294
Li2VO2F,1.1294000000000004
LiFe2F5,1.1296
Rb2PdI6,1.1296
MgZn2(FeO2)4,1.1296000000000004
Cs4CO4,1.1297
MgCu2(WO4)2,1.1298
NaV3(FeO4)3,1.1299
LiVOF2,1.13
Zn2SO6,1.13
Li4Ti3V3(NiO8)2,1.13
Na8Zr3Si12SnO40,1.13
C13F7,1.1301
K4BaTi6S20O,1.1301
TaZn2SbO6,1.1301000000000003
KRuF6,1.1302
Fe2OF3,1.1303
Li4TiCrO6,1.1303
NaPrMnWO6,1.1303
Li4MnCrO6,1.1303999999999998
CrPO4,1.1304000000000003
Mg(Fe2O3)4,1.1304999999999996
Mg(SbO2)2,1.1304999999999996
Sr4GaN3O,1.1305
CsPr2Ag3Te5,1.1305
Na3VP2O9,1.1306
K3AgSn3Se8,1.1306
Li2MnCoO4,1.1306000000000005
Ge19(SbI)4,1.1306000000000005
Mg30CuBiO32,1.1306999999999992
Mo5PbO8,1.1307
BaSrNbSbO6,1.1307
Ba10MgMn6(O12F)2,1.1307000000000005
YMo3O8,1.1308999999999996
CaSm4V4O12,1.1309999999999991
LiVO2,1.1310000000000002
Mg3MnO4,1.1310000000000002
LiVCrP2(O4F)2,1.1311
Li4Mn3CoO8,1.1311
Li9Mn(SiO5)2,1.1311
Li2VO2F,1.1311000000000004
La3CoW(SO2)3,1.1312000000000006
Li7Fe7SiO16,1.1313
Te3WCl4O,1.1313
Ba2TaMnO6,1.1315
Li(Fe2O3)4,1.1315
TlAgAs2PbS5,1.1315000000000004
CaMoO3,1.1315999999999995
Cs3Ag2Sb3S8,1.1315999999999995
LiSbN2,1.1316000000000002
Te6MoW3Se2,1.1317
CaVSiO5,1.1317000000000004
Mg5(AlSe4)2,1.1317000000000004
Mg6CoBO8,1.1318
Mg6NbCoO8,1.1319
Cr9(PO4)8,1.1319
Li7Mn2(CoO4)3,1.1319999999999997
ZnCoMo2O7,1.132
MgMnV4O12,1.132
MnH10SeO9,1.1322
LiVOF3,1.1322
K3Nb2CuSe12,1.1323
Li2Ti2Mn3O10,1.1323
K2Ca2Si8O23,1.1323
NaZrP2O9,1.1324999999999998
Sm6Ge3Se14,1.1326
HoZn(MoO3)2,1.1326
MnSb2Pb5O11,1.1326999999999998
Na18Ta4Zn8Si9(SO8)9,1.1327000000000005
LiMgSb,1.1328
MoW3(SeS3)2,1.1328
PdPb2F6,1.1328000000000005
MgV6O5F19,1.133
VOF,1.133
Gd3CuGeS7,1.133
Ca2Sn3S8,1.1330999999999998
Li3Mn3(PO4)4,1.1330999999999998
Rb2Nb3H11C5(Cl3O4)2,1.1330999999999998
ErCuPbSe3,1.1330999999999998
Dy2Mn3Sb3O14,1.1330999999999998
VBr2,1.1332
Li3V3P8O29,1.1332
Na6MnSe4,1.1332999999999998
Li2V2OF6,1.1334
Zn2InCuTe4,1.1334000000000004
MnV2HPb2O9,1.1334999999999995
Ta2CrO6,1.1336000000000004
MgS2,1.1336999999999997
AlB3H14N,1.1337000000000002
Li6V3P8O29,1.1338
Mg14CoCO16,1.1338999999999997
Sm2MgSe4,1.1339
C3N4,1.134
Cu2P8Se3I2,1.1340000000000003
Li4V5Ni3O16,1.1340999999999997
Mg3MoN4,1.1341
CaFeO2,1.1342
CsReCl4,1.1342
V4O7F5,1.1343
Ge2SeS,1.1343000000000003
Rb6CuAgO4,1.1344
BrNO,1.1344
Ca(MoO2)2,1.1344000000000003
MnPNO5,1.1345
InCuGeS4,1.1346000000000005
AlSbO3,1.1346000000000007
KMg3(SiO3)4,1.1346999999999996
Hg2P3Cl,1.1347
Li4Nb2V3Cr3O16,1.1347999999999998
TiGeO3,1.1348999999999996
U2CuP2(H4O5)4,1.1349
TeO3,1.1349000000000005
Na4Li5(WO3)10,1.1349999999999998
Na2CuBiCl6,1.1349999999999998
NaBiO2,1.1350000000000002
Mg6CdCoO8,1.1350999999999996
MoWS4,1.1351
SiO2,1.1351
LaMn2BiO6,1.1351000000000004
AlAgSe2,1.1351999999999998
MgZn3Cu2H14(SO9)2,1.1353
LiV2O2F3,1.1353000000000002
Li2VO2F,1.1354000000000002
V2FeO4,1.1355
MgFe4(OF)4,1.1355
Ho2CF2,1.1355000000000004
PtCl2,1.1359
RbAg4I5,1.1359
Ba3Zr2S7,1.1359000000000004
Sr7SiB3NO13,1.136
Ca4CrN4,1.1360999999999994
K4BeP2,1.1361
K2(ReSe2)3,1.1361
Cs2AlTlH6,1.1361999999999997
Rb2PtC2,1.1362
Li2Ti2Mn3O10,1.1362
Ba2VBiO6,1.1363
CS4N2(OF)3,1.1363
CsZrOF5,1.1364
K5YNi2(NO2)12,1.1364
Li4Cr3Fe3(WO8)2,1.1364999999999998
NaH2SNO3,1.1365
Li7BiN4,1.1365000000000005
CoPO4,1.1365999999999998
YTi(WO4)2,1.1366
Ba(MgP)2,1.1366
Fe4As5O13,1.1366999999999998
Ho2MgSe4,1.1366999999999998
Tl4Pd3Cl10,1.1367
VPb2N3,1.1368
LaNb2AgO7,1.1368999999999998
TiV2CrO10,1.137
CeH8(SO6)2,1.137
MgCo2(SiO3)4,1.137
LiFeP2O7,1.137
MgFe7(Ni3O8)2,1.1370999999999991
Bi20(PtI12)3,1.1370999999999998
RbSi2O5,1.1371
HfCrO4,1.1371000000000002
CuReO4,1.1371000000000002
KYH4C4O9,1.1372
Zn(SnO2)2,1.1372999999999998
Li4FeTe(WO6)2,1.1373000000000002
La2SiSn2S5O24,1.1374
Li4Nb2V3Co3O16,1.1374
Fe6O5F7,1.1375000000000002
Sr2CrWO6,1.1375000000000002
K2PbO3,1.1376
Ir2S3,1.1376999999999995
Y3CuSnSe7,1.1377000000000002
Ba2BrN,1.1377000000000002
Li2Co2OF6,1.1378
Li5Mn2CoO8,1.1378
AgP(NO)2,1.1378
Cs3Zr7MnCl20,1.1378
Te3MoWSe,1.1379
La2MgCrO6,1.1380999999999997
Ba3CaCuSi6O17,1.1382000000000003
V(GeO3)2,1.1383
Ba4Sb4Se11,1.1384
LiV6O7F5,1.1384999999999996
Sr2MgZn2Sn2(PO4)4,1.1385
Tl2Au4S3,1.1385
Ho2MgSe4,1.1386000000000005
LiYbAs,1.1387
Rb3Au3Br8,1.1387
Te4Mo3WSe4,1.1388000000000005
PBr7,1.1389
AgHgSI,1.1391000000000002
NaMnO2,1.1391000000000004
Mn3(Ni17O20)2,1.1391999999999998
Na3WO4,1.1392000000000002
MgFe8(OF)8,1.1392999999999998
LiGd(C2O5)2,1.1393
Na2PdF4,1.1393
LiV6O7F5,1.1393000000000004
K3BiO4,1.1394
Na6Zn2Si5Ge6S7O48,1.1394000000000002
ZnP14Pb,1.1394000000000002
CuH6(CN2)4,1.1396
Co3OF5,1.1396
Ba2MgTi3Tl2O10,1.1396999999999995
MgV4O5F7,1.1397
NaNbZnSi(SO6)2,1.1397
Li5V6O5F19,1.1397
Re3Te4Cl5,1.1397000000000002
Mg6ZnCoO8,1.1397000000000004
KBa4Ti5O14F,1.1399
KSrHfBiO6,1.1399
Nb2Zn2SiS5O24,1.1399
Tm3InS6,1.1399999999999997
Pr6MnS10,1.1401000000000003
SrFe12O19,1.1401999999999997
Sr(SbN2)2,1.1401999999999997
Ag2Te4O11,1.1402
CuP7I,1.1402
LiV6O7F5,1.1402000000000003
Y5Mg(MoO6)2,1.1403
MgTi3V5O16,1.1403
Li3Fe2(SiO4)2,1.1403
Cd10As6HClO25,1.1404
Li6V3Sb3O16,1.1404
Ti3(AsO4)4,1.1405999999999998
Zr2Nb2Si3(SO8)3,1.1406
TaCu3Te4,1.1406999999999998
MgZn2(FeO2)4,1.1408
Cs2Tb6Te7N2,1.1408999999999998
Cs2NiH12(SO7)2,1.1409
Li3V4(OF3)3,1.1409999999999998
Li4MnCo2O7,1.141
IrF3,1.1410999999999998
Li4MnCo2O7,1.1410999999999998
LiCuCO3,1.1411999999999995
Cs4Sn2Te7,1.1412
Li2MnV(PO4)3,1.1412
Ba10IBr4N5,1.1413000000000002
K2Pt(I2O)2,1.1413999999999995
Li2Cr4O13,1.1414
Tl2SnO3,1.1414
La2Fe(SeO)2,1.1414
Fe2Ag(MoO4)3,1.1415000000000002
Li4V2Fe3Co3O16,1.1416
LiMnFeO4,1.1417
Li4MnCr2Fe3(PO4)6,1.1417000000000002
NaMn2FeAg(PO4)3,1.1417000000000002
CsMg30MnO32,1.1417000000000002
Ca5P8,1.1418000000000004
Li2Fe3BiO8,1.142
Yb(LuSe2)2,1.142
Mn(CuCl2)2,1.1420000000000003
Co(PO3)3,1.1421
Li4V3P8O29,1.1421
CsZr6CCl15,1.1421
K2CuP,1.1421
GeH4,1.1422
NiMoP2O9,1.1422
Tl4Bi2S5,1.1422000000000003
K3Bi,1.1423
RbTa(CuTe2)2,1.1424
BaCoO3,1.1424000000000003
MgV4(OF2)4,1.1424999999999998
Sr5Cr3ClO12,1.1425
K2TcCl6,1.1425999999999998
Zr6BH42C12I13O12,1.1426
Nd3SeBrN2,1.1427
Li2VCrO4,1.1427
GaHg2SbCl4,1.1427
Sm2ZrS5,1.1427999999999994
Co5NiO12,1.1427999999999998
Ca(HoSe2)2,1.1428
Li4MnV2WO12,1.1428000000000005
Li2Cr4O13,1.1429
AlGa(CuS2)2,1.1429
Ho5Mg(MoO6)2,1.1429000000000005
MgFe2(WO4)2,1.1430000000000002
MgFe4(CoO4)2,1.1431
Li3V4(OF3)3,1.1431000000000002
Na6Ca4Nb8Si9(SO8)9,1.1432000000000002
Na5SiP3,1.1432000000000002
Na2PtS2,1.1433
Na18Ca16Ta8Si9(S3O16)9,1.1433
BaNd2ZnS5,1.1433000000000004
Ba4In6O13,1.1433999999999995
ZnFe4NiO8,1.1434999999999995
MnGeO3,1.1435000000000004
KMo2(P2O7)2,1.1436000000000002
Pb7(BrO4)2,1.1437
VAsNO4F,1.1437
MgCr2(PO5)2,1.1438
SbPO4,1.1438
Dy2Cu(SiO3)4,1.1438
Lu3Mg2CrS8,1.1439000000000004
Li5V3P8O29,1.144
RbMg6BO8,1.144
Mg2V3O8,1.1440999999999997
Na4Bi2C4SO16,1.1441
BaSiO3,1.1441000000000008
MoP3H27C9I2O,1.1442
Hg3H4(IO6)2,1.1443
Li3TiMn3O8,1.1443
Te6Mo2W,1.1443
Ga6CuSb7(TeCl3)8,1.1443
Ca(BiO2)2,1.1443000000000003
Li9Mn2Co5O16,1.1443000000000003
MgCd2Te2(MoO6)2,1.1443999999999992
Na3AgO2,1.1444
Li7Mn2(CoO4)3,1.1445999999999996
Al4Si2Sn13(SbO14)2,1.1445999999999996
P3Ru,1.1445999999999996
Na2Ti3ZnSi2(SO6)4,1.1447
MgFe6O7F5,1.1448
Sr2NbSbO6,1.1448999999999998
Fe2H4O2F5,1.145
V2P4H3O16,1.145
SnBrCl,1.1451
Rb4Te8O23,1.1452
Na4CaTi3Si3(SO8)3,1.1453
Te4Mo3WS4,1.1453000000000002
VH10SO10,1.1453000000000002
ZnCr2O4,1.1456
Li6V3P8O29,1.1456
Na3NiO2,1.1456000000000002
Sr3(AlAs2)2,1.1456000000000004
Ca8Mo7O20,1.1457999999999997
Na2SnBAsO7,1.1457999999999997
Na6Si7Sn8S5O48,1.1458
LiFe2O2F3,1.1458000000000002
Rb2As2Pd,1.1458000000000002
Li2V5O10,1.146
DyMnFeO5,1.146
Te2Mo3W(Se2S)2,1.146
MnZn2Si(HO3)2,1.1460000000000004
Fe2HgO4,1.1461
MgV4O5F7,1.1461
Ga(FeO2)2,1.1462
Rb2InGaBr6,1.1462
LiV2P4(HO8)2,1.1463
Cu2As4S3Cl2,1.1463
Te2Mo3W(Se2S)2,1.1464
LuZnFeO4,1.1464
Sr6Mg(Te4O11)2,1.1464999999999996
LaB12H33Cl2O11,1.1465
Li13Mn3(SbO8)2,1.1465
Ca8ScFe7(SiO3)20,1.1465999999999998
Na6Mg4Nb20Si21(S5O48)3,1.1467
Tl2PO4,1.1467
Mo3O8,1.1467
Al6CuP4(H4O7)4,1.1467
Te2Mo3W(SeS2)2,1.1468999999999996
LiV2Zn2(SiO5)2,1.1469
MgTi3(SnO4)3,1.1470000000000002
YMg6CrO8,1.1470999999999991
ZnMo3O7,1.1471
Fe2Sb3PbO8,1.1471999999999998
CoPO4,1.1473
K2LaTa6(Br5O)3,1.1473
SbIrSe,1.1473999999999993
Ba2MnNbO6,1.1475
Na4Sn2C4SO16,1.1476
MnTlCl3,1.1477
LiCr2P3O13,1.1477
Ba3Cr2O8,1.1478000000000002
Cu3P4Se4Br3,1.1478000000000002
NaCr(PS3)2,1.1478000000000002
Li4VCr(WO6)2,1.1479
Li5VO4F,1.1479
Er2CdS4,1.1479
Nd6S4BrN3,1.1480999999999997
RbMnP2O7,1.1481
Na4CoO3,1.1481
Sm4Mg(Mo2O7)2,1.1481000000000003
CuH6Pb4(SO7)2,1.1483
Li3V4(OF3)3,1.1483
InAg(PS3)2,1.1483
KLaInSbO6,1.1483999999999996
Sr2MgCdWO6,1.1484
Rb2MnBr4,1.1485
FeAgO2,1.1485
LiFe2O2F3,1.1486
MgCr2O4,1.1486999999999998
Rb3AgSn3Se8,1.1488
CoBi(CO)3,1.1488
Fe(Bi5O8)5,1.1488000000000005
BaCdPF,1.1489000000000005
Pd(Se3Cl)2,1.149
Ca7SnN6,1.149
As2Kr3F16,1.149
LiV4O5F7,1.1491
Al5(FeO4)3,1.1491999999999996
CeSe2,1.1492
PrMg(MoO3)2,1.1494
Sr4SiAs4,1.1494999999999995
Na6Nb4Zn4Si5S7O48,1.1495
TiZn(GeO3)2,1.1496999999999995
Al4InCuS8,1.1498
Mg5(SiN3)2,1.1498
CaFe3Si2O9,1.1499
MgSi2WO6,1.1501
MgZn4(Se2O5)4,1.1501
Pr3S3N,1.1501
Li6V3P8O29,1.1502
LiCo(PO3)4,1.1502
Au2Se2O7,1.1502
MgTi(CoO3)2,1.1502
Li2Cr2O7,1.1502
TeO3,1.1502999999999997
K6Mg(FeO3)2,1.1503
V2O3F,1.1504
MgMn2O4,1.1504000000000003
LiV2O3F,1.1505
Li7Ni(O2F)2,1.1505
Li3Cr(FeO3)2,1.1506000000000003
Lu4Mg(CoO3)4,1.1506999999999996
Mo2P3O13,1.1507
MgFe6(OF)6,1.1507999999999998
Li7Cr3(WO8)2,1.1508
RbLi2Co2(BO3)3,1.1508
PdSeO4,1.1509
Li9Mn2Co5O16,1.1509
Li4Ti3Mn2(Fe2O9)2,1.1509
LaMoN3,1.1509
KHf6CCl15,1.1511
LiV3O6,1.1511
MgZn2AgWO6,1.1511999999999998
Yb(YSe2)2,1.1513
Nd2Mn3Sb3O14,1.1513
Li9Mn5(SiO8)2,1.1513000000000004
VCoO3,1.1513999999999998
CaLaFeMoO6,1.1514000000000006
MgTi3V5O16,1.1515000000000004
Cs2YAuI6,1.1517000000000002
ErZnAsO,1.1517000000000008
KAlCo(PO4)2,1.1518000000000002
Li9Mn2Co5O16,1.1519
MgV4Zn2O12,1.152
LiV2Zn2(SiO5)2,1.1521
Mg(RhO2)2,1.1521
SrMgNiO3,1.1523
CrH8C4(S2N3)2,1.1525
Na24Mg10Nb2Si9(SO8)9,1.1525000000000003
MgMnVP2(HO5)2,1.1526
Te2Mo,1.1526
KHo2Cu(MoO4)4,1.1526000000000003
Li7Mn2(CoO4)3,1.1526999999999998
LiFeO2,1.1526999999999998
Li9Co7O16,1.1528
K2NiP2WO10,1.1528
Ho3Te3N,1.1528999999999998
MgFe6(OF)6,1.1528999999999998
Tl2GeSe3,1.153
V(SbO3)4,1.1530000000000005
Li2VCrO4,1.1530999999999998
MnZn2SbO6,1.1532
LiFe3(OF3)2,1.1533
Li3V2(O2F)2,1.1533
Zn(SbN2)2,1.1533999999999995
Er2MgSe4,1.1534
Na8Nb2Cu4S21,1.1534
Li2Nb(PO4)2,1.1534000000000004
KPr(SnO3)2,1.1534000000000004
TlCuPSe3,1.1534999999999995
Li4Co5O9F,1.1535000000000002
NaFe5O8,1.1536
Yb(HoSe2)2,1.1536999999999995
Rb2AgSbBr6,1.1538
Cr3HgF6,1.1538
RbTlCl3,1.1539
SrNb2O4,1.1539
GaN5O14,1.1539
Te6IrBr3,1.154
LaTh4OF19,1.154
Ca4Te3W5O18,1.1540000000000004
Sr2ZrVO6,1.1540999999999997
Li3Fe(PO4)2,1.1544
MgFe4(PO3)12,1.1545
NpF6,1.1546
NaSbN2,1.1547999999999998
RbC3S2(O2F3)2,1.1549
LaNb2AgO7,1.1549999999999998
CoH12C2(NCl2)2,1.155
RbSb3S5O,1.1550000000000002
Li2(CoO2)3,1.1551999999999998
Ca(MoO2)2,1.1551999999999998
HoMn2O5,1.1551999999999998
KAsSe3O,1.1553
Na2CaTiSi(SO6)2,1.1554
Na3Cr2(PS4)3,1.1554000000000002
Li3MnCoO5,1.1554000000000002
TmCuSe2,1.1554999999999995
Li3VFe3O8,1.1555
CuPS3,1.1555
WN2,1.1556
MnVP2(O4F)2,1.1557
MgV4Zn2O12,1.1557999999999995
ZrFeTe,1.155800000000001
HgSeNO3,1.1562
Na3Fe5O8,1.1562999999999994
Sr7SiN6,1.1562999999999994
HfCrCuS4,1.1564999999999994
Zn(FeO2)2,1.1565999999999996
Mn2Fe3(SiO4)3,1.1566
RbCuO,1.1566000000000003
MgTi(FeO2)4,1.1567000000000005
Ti5Fe11O24,1.1568
CaLa4Ni3WO12,1.157
Rb2Sn2H3N,1.157
Sm3CuSnSe7,1.1570999999999998
MgTi(FeO2)4,1.1572
Rb2LaTa6(Br5O)3,1.1572
MgV4O5F7,1.1573
Li4MnCo2O7,1.1574
K6Na3AlSb4,1.1574999999999998
BaErCuS3,1.1574999999999998
YMgMo3O8,1.1576000000000004
LiTa6O15,1.1576999999999995
AlCrO3,1.1578
CsSm2Ag3Te5,1.1579000000000002
FeAgO2,1.158
Na3Mg4CrSi8(O11F)2,1.1580000000000004
Li2V5O10,1.1581
GdMn2O5,1.1582
LiLa8V8O32,1.1582
MgVFeP2(O4F)2,1.1582
Cd2P3Br,1.1583
MoW3Se8,1.1583
MoPO5,1.1584
GdAsO4,1.1584
Ca2Sn2O5,1.1584999999999992
Li2MnSn3O8,1.1584999999999992
LiBeP,1.1585
Na5Fe2P2(CO7)2,1.1586
NaCo2As3O10,1.1586
Li3Cr(CoO3)2,1.1587
Sr3MgV2O8,1.1587
ErMnFeO5,1.1587
Ba2TiMnO6,1.1587999999999998
LuSI,1.1588999999999996
NaAuO2,1.1589999999999998
Li9Mn2Co5O16,1.1589999999999998
MgTiMnV4O12,1.1589999999999998
Li2MnV(PO4)3,1.1589999999999998
RbSi,1.159
CrI3,1.1590000000000005
Li7Mn2(CoO4)3,1.1590000000000005
MgFe4(OF)4,1.1590999999999998
Na2Co2O3,1.1591
Ba6Nd2Y(MoO6)3,1.1591000000000005
K4As2Se5,1.1592
Co3(OF2)2,1.1594
Na5TlO4,1.1596000000000002
V4Bi23O44,1.1596000000000002
BiO2,1.1596000000000002
RbEr2Cu3S5,1.1596000000000002
MgTiMnV4O12,1.1597
Na2TlPCO7,1.1597000000000002
H(WO3)2,1.1597000000000002
HC3ClO2,1.1598
Fe4OF7,1.1598
Li3MnBPO7,1.1598000000000002
LiCuAu2,1.1599999999999997
FeBiO3,1.1601
Te6RhBr3,1.1601
Mg2Ga2S5,1.1601999999999997
Li9Mn2Co5O16,1.1602
Gd3CuSiS7,1.1604
MgAl4(HO)12,1.1605
Na2Ti4Al4Si3(S3O16)3,1.1605
V6O7F5,1.1605999999999996
NaPPdS4,1.1606999999999998
CaMn4(CoO6)2,1.1606999999999998
Li3Cr10Fe5O24,1.1606999999999998
Na2GaAgCl6,1.1607
V3O7,1.1608
RbHfMg6O7,1.1608999999999998
Hg3TeO6,1.1609
FeO,1.1609999999999996
LiZn4Fe13O24,1.161
K2TlSbBr6,1.161
Sm2HfS5,1.1610000000000005
Sm3CuGeSe7,1.1611999999999996
MgFe6(OF)6,1.1612
CaPdF4,1.1613000000000002
Te4MoW,1.1613999999999995
LiV8F33,1.1614
Li32Mn11Cr5O48,1.1614
CaSn3P2(SO6)4,1.1614000000000002
RbAgSe4,1.1614000000000002
SrTaNO2,1.1614000000000004
Pb3(SO6)2,1.1614000000000004
CaMn2(SiO3)4,1.1615000000000002
Na2Ti2Si2O11,1.1615000000000002
MgFe8(OF)8,1.1615999999999995
Ti3MnNi2(PO4)6,1.1616999999999995
K2CuBiCl6,1.1616999999999995
Li3Co5OF11,1.1616999999999995
LiZn2Fe9O16,1.1616999999999995
Hg3(SI)2,1.1618
Cs2TaAuF6,1.1619
LiZnFe7O12,1.1619000000000002
MgCoF6,1.162
V3AgO8,1.162
HAuC4(N2O)2,1.162
NaZn2Ge2PS5O24,1.1621
KBaP,1.1622
Pb(ClO2)2,1.1622
Li5Fe5(CoO6)2,1.1622
Y2Mn3Sb3O14,1.1622000000000003
Cs2CuBiF6,1.1622999999999997
TaTe4Cl4O,1.1624
Li4Mn3O7,1.1624
LiSnN,1.1624
RbAg5(PS4)2,1.1624999999999996
Fe3(OF2)2,1.1625
CdS2,1.1625
Na2MnCdFe(PO4)3,1.1625
Ca2MnFeSi4(HO3)5,1.1626
Mg14FeCO16,1.1627
NaLiMg6O7,1.1627
Sr5NbN5,1.1627
SbAs2Cl13,1.1627
Ba2MnNbO6,1.1627999999999998
Rb2TlSbBr6,1.1629
Er7C2I12N,1.1629999999999998
Sr2FeBrO3,1.1631
MoW3S8,1.1631
Na2WO6,1.1631
Er2S3,1.1633
Na5AgGe2Se7,1.1633000000000002
Pm2MgSe4,1.1633999999999998
Li4Cr5WO12,1.1633999999999998
Li2Fe5O5F7,1.1635
Be2CuPd,1.1635
PrZnPO,1.1635000000000009
Li5V3P8O29,1.1636
Ba8P5Br,1.1637
LiP5,1.1637000000000004
KTlO,1.1638000000000002
Ba6Br2N3Cl,1.1639000000000004
LiMg(Fe5O8)2,1.1639000000000004
Eu4I6O,1.1639999999999997
Ti5Fe11O24,1.164
Rb2TaAuF6,1.164
Li6V3P8O29,1.164
YMgCo(WO4)2,1.1640999999999997
Re3Se4Cl,1.1641
MgV4(PO5)4,1.1641
Lu3InS6,1.1641999999999992
K2ScAuI6,1.1642
LiTa2CuO6,1.1642
Zn2Bi2O5,1.1643
YMn2O5,1.1643
Bi8SbAuBr9,1.1643000000000003
Li2Zr6MnCl15,1.1644
KCrS2,1.1644
Fe2BO4,1.1644
MgCr4(PbO4)4,1.1645000000000003
Sr2AlCr2GaO7,1.1645000000000003
LuAgTe2,1.1646999999999998
Li2V3(OF)4,1.1647
KTlS2,1.1647999999999998
Tb4Mg(PO4)4,1.1648000000000005
ZrSbRh,1.1648000000000005
Ba8Nb6CoO24,1.1648999999999994
MgFe4(OF)4,1.1649000000000005
K4Nb2Se11O,1.1649999999999998
Li3Mn2O5,1.165
WF4,1.165
Nd6Ge3Se14,1.165
Ca(SO5)2,1.1651
MgMo3Se4,1.1651999999999996
MgV4Ag2O11,1.1652
DyTl2InS4,1.1655000000000002
Ca5Zr2N6,1.1656
Rb3Sb5O14,1.1656000000000004
Li2Cr2O7,1.1657
Li2CrSiO4,1.1657000000000002
Te8IrI5,1.1657000000000002
Pr6Ti2S7O6,1.1657000000000002
NaNb3ZnSi3(SO8)3,1.1657000000000002
K12Mg(Pb2O5)2,1.1658000000000002
CrAgO2,1.1658000000000004
Ba2MgMnWO6,1.1658999999999995
Mn(PO3)3,1.1659
Li3V3P8O29,1.1659000000000002
BrClO,1.1661
Sr2NbFeO6,1.1662
Li9Mn2Co5O16,1.1662999999999997
Li3Mn5OF11,1.1663
Fe5(OF4)2,1.1664
Er2Mn3Sb3O14,1.1665
Sb5IO7,1.1666
CuAs2S8N8(OF7)4,1.1666
La7Mo7O30,1.1666000000000007
LiSi2B,1.1667999999999994
V5W3O20,1.1667999999999998
Ag2P2PdO7,1.1667999999999998
CrF5,1.1667999999999998
NaYSiSn(SO6)2,1.1668
Mg2CrIn3S8,1.1668000000000005
MgV4O7F5,1.1668999999999998
Mo(WSe3)2,1.1669
Zn(BiO2)2,1.1669
Ca2Tl2O5,1.1670000000000005
ZnSn3F6,1.1672000000000002
Mg14CrCO16,1.1672000000000002
Na5SrNbAs4,1.1672999999999998
EuBr2,1.1673000000000002
Ca7Mg2N6,1.1673000000000004
Na6Ca4Ti4Si3(S3O16)3,1.1675
NaMnO2,1.1676000000000002
AgTeO3,1.1676000000000002
AlVO3,1.1677
CoPO4,1.1677
Cr(FeO2)3,1.1677
Li2MnV(PO4)3,1.1678
Rb2YAuI6,1.1678000000000002
SmCuS2,1.1678000000000006
Pr6S4N3Cl,1.1679999999999997
Cr2Bi28O47,1.168
MgNi2(MoO4)2,1.1681999999999997
Mg30CoCO32,1.1681999999999997
MgSnO2,1.1683000000000003
H4N2O3,1.1686
Li7Ni(O2F)2,1.1687999999999998
Mn3PtF6,1.1688
Li3Ni(BO3)2,1.1688
K2PtBr6,1.1688
V3Fe(PO4)6,1.1688999999999998
K2TaAuF6,1.169
MgAl4(CuO4)2,1.1690000000000005
KCu2AsS3,1.1692000000000005
BaHfMg6O8,1.1693999999999996
Sb2(KrF4)5,1.1694
Ba2TaMnO6,1.1694
MgCd2(CoO3)2,1.1694
Li9Cr5O12,1.1694999999999998
H6N4O9,1.1695
ZnFe5O7,1.1696
Li7Mn2(CoO4)3,1.1696
Sr2ZrVO6,1.1696999999999995
Na3CuO3,1.1698
LiV3Zn2O8,1.1698
LiV2P4(HO8)2,1.17
Bi2Se2S,1.1700000000000004
SrTb2Fe2O7,1.1701
Hg3(SeI)2,1.1701
Bi14PdBr16,1.1702
K2S5,1.1703
Sr4CN4,1.1703
Li5V3P8O29,1.1703
MgV4(O2F)4,1.1706
Pr7(IO6)3,1.1706000000000003
CrInO3,1.1706000000000003
Ho2Pb2O7,1.1706000000000003
Na2LiCuP2O7,1.1706999999999996
Mg3Fe4(MoO4)6,1.1707
Pb(SN)2,1.1707999999999998
Na2V2O5,1.1709
Dy3Se3N,1.1709999999999998
Gd4(SiS4)3,1.1710000000000005
La3B2N5,1.1710000000000012
Li2MnV(PO4)3,1.1712
K2CoF6,1.1713
YMg30NiO32,1.1713000000000005
Cu2C4NCl5,1.1715
Tb2TeO2,1.1715
VZn2N3,1.1715000000000004
Na3Mg2(MoO4)3,1.1715999999999998
Rb8AlAu3O4,1.1716
LiGdSe2,1.1717
Na8TiZn3(PO4)6,1.1717000000000002
Na2CrAuF6,1.1718000000000002
Rb2ScAuI6,1.1719
BaPr2ZnS5,1.1719999999999997
CoH2SO5,1.172
LiCu(PO3)2,1.1720000000000002
Nd10Ti12O39,1.1720000000000002
NaMgMnO2,1.1721
MgFe6(OF)6,1.1721
SrGdCuS3,1.1721
Dy2Si9B36C,1.1721999999999992
Gd2Se2O,1.1722
MgCr2(Fe2O5)2,1.1722999999999997
MgV4O7F5,1.1723
Li6V3P8O29,1.1723
MgCr2(CoO4)2,1.1723
Co3OF5,1.1726
LiMnPCO7,1.1726
K(SnSe2)2,1.1727
TeMoWSe2S,1.1728
Ca(WO3)2,1.1728
Li4V3P8O29,1.1729
Rb4Sn(Te2O)2,1.1729999999999998
K3Pu(H3O4)2,1.1730999999999998
MnSiO3,1.1731000000000005
Li11Fe3B24(PbO24)2,1.1731000000000005
Ba2MgCoMoO6,1.1731000000000005
Li9Mn7O16,1.1732
CuP4Se3I,1.1734
CaCo(SiO3)2,1.1736
Li3Mn(PO4)2,1.1737000000000002
Te3Mo2Se,1.1737000000000002
NaSmTe2,1.1738
Ta7Cu3O19,1.1738999999999995
AgRh(SO4)2,1.1739000000000002
BaCaMg6O8,1.1739000000000006
AlCu(WO4)2,1.1739999999999997
SrV2P2O9,1.174
Na18Mg8Nb16Si21(S5O48)3,1.1741
LiV2OF5,1.1741999999999997
Bi3(TeCl5)2,1.1743
La3InS6,1.1743999999999994
V3(PO4)4,1.1745
Te6MoW2,1.1745
Li3V4(OF3)3,1.1747
Tl2P4Pd3O14,1.1747
MgHg2(MoO4)2,1.1748000000000005
Mg30CrCO32,1.1748000000000005
TiTlPS5,1.1748999999999998
Cd3(ClO)2,1.1749
K4Zr6CBr18,1.1749999999999998
AgSb(SeF3)2,1.175
Li9Mn7O16,1.1751
Lu2V2O7,1.1751
CaSc4(FeO3)4,1.1752000000000002
VZnF4,1.1752999999999998
Li9Mn7O16,1.1753
Li32Ti11Cr5O48,1.1754000000000002
Na2MgMn2O4,1.1754000000000002
TeMoWSe2S,1.1757
MgMn2V4O12,1.1757
AlSn(WO4)2,1.1757
Na6Ti4Al4Si5S7O48,1.1757